/*--------------------------------*- C++ -*----------------------------------*\
  =========                 |
  \\      /  F ield         | OpenFOAM: The Open Source CFD Toolbox
   \\    /   O peration     | Website:  https://openfoam.org
    \\  /    A nd           | Version:  9
     \\/     M anipulation  |
\*---------------------------------------------------------------------------*/
FoamFile
{
    format      ascii;
    class       volScalarField;
    location    "6.0000491/FluidRegion";
    object      T;
}
// * * * * * * * * * * * * * * * * * * * * * * * * * * * * * * * * * * * * * //

dimensions      [0 0 0 1 0 0 0];

internalField   nonuniform List<scalar> 
132485
(
299.956091589
299.946333144
299.987713729
299.956071432
300.001120314
300.000983991
299.973345698
299.946327923
300.00097768
300.000918213
299.947889177
299.987712596
299.973358887
299.947693546
299.980962528
299.95599533
299.946223895
299.987653318
299.955984134
300.000855467
300.000744707
299.973235341
299.946226724
300.000740192
300.000694836
299.947730915
299.987654191
299.973249863
299.94755015
299.980889818
299.955908276
299.946137512
299.987580983
299.95590887
300.000623013
300.000540552
299.973133299
299.946134609
300.000536347
300.000506671
299.947619993
299.98758199
299.973144752
299.947428956
299.980801907
299.955824013
299.946037463
299.987489009
299.955811493
300.000413745
300.000364866
299.973007687
299.946042474
300.000365359
300.000350142
299.94749765
299.987490487
299.973030678
299.947310934
299.980688009
299.955782774
299.9459909
299.98747275
299.955762206
300.000211852
300.000200869
299.972950819
299.945977338
300.000219523
300.000230581
299.947400098
299.987474143
299.97296237
299.947220604
299.980668766
299.95571772
299.945923838
299.987423856
299.955707226
299.999976783
299.999831352
299.9728158
299.945958323
300.000032106
300.000037208
299.947295216
299.987431502
299.972877049
299.947118246
299.980607304
299.955700309
299.945917176
299.987428613
299.95568187
299.999959475
300.000167938
299.97209225
299.945992813
300.000471334
300.00001997
299.947143152
299.987433922
299.972173055
299.946974968
299.980507952
300.013310888
300.020597045
300.015966238
300.015950533
299.987648722
299.980510044
300.013231107
300.020506743
299.985128852
300.015874333
299.988951862
299.988944777
299.990949521
300.011985091
300.011981924
300.010463743
299.945275338
299.982855231
299.964324459
300.045219177
300.056522542
300.018768191
300.037659417
299.949229167
299.967312073
299.980143214
300.055371033
300.052005579
300.034691334
300.021191196
299.984702195
300.013288165
300.016526058
299.987622828
299.980512176
300.01322331
300.020491886
299.982850738
299.945279191
299.964357597
300.045221184
300.018776205
300.056499814
300.037607479
299.967519552
299.94823814
299.935008036
300.028011586
300.033565765
300.053657772
300.066521274
299.985121115
300.01586588
299.967369282
299.949217457
299.980162971
300.055364471
300.034605407
300.052015071
300.021155209
299.934922024
299.968448629
299.967324497
300.053575466
300.066524985
300.032820887
300.03379776
299.98471153
300.013284841
300.016509262
299.948313749
299.967525873
299.935021132
300.027990623
300.05356898
300.033556377
300.066501973
299.968106286
299.93497084
299.967203284
300.053748374
300.03314765
300.066456283
300.033914065
300.020358136
299.987595925
299.980455816
300.01318588
300.020455432
299.985072675
300.015845496
299.988887631
299.98888882
299.990845836
300.011928415
300.011936842
300.010368281
299.945155069
299.982692356
299.964135845
300.045133334
300.0564176
300.018617475
300.037485751
299.949146913
299.967132629
299.980000452
300.055308142
300.051956536
300.034532402
300.021068025
299.984625126
300.013240177
300.016461042
299.987587747
299.980453457
300.013180638
300.020441019
299.982694357
299.945163402
299.964173442
300.045140358
300.018616804
300.056394582
300.037435061
299.967485919
299.948088173
299.934932566
300.027917431
300.033540406
300.053527908
300.066467654
299.98506756
300.015833604
299.967195218
299.949139542
299.980024166
300.055277595
300.034446118
300.051952011
300.021032538
299.934853383
299.968339369
299.967297558
300.053445214
300.066469806
300.032716849
300.033759616
299.984636041
300.013250977
300.016448963
299.94816832
299.967493861
299.934958289
300.027897312
300.053442435
300.033532018
300.066458484
299.968002158
299.934918086
299.967178855
300.053636509
300.033059964
300.066406621
300.033879627
300.020310933
299.987536244
299.980387769
300.013117844
300.020379483
299.985006424
300.015754069
299.988821165
299.988819054
299.990749518
300.011860639
300.011858989
300.010273647
299.94505117
299.982549948
299.963973513
300.045044938
300.056312968
300.018482401
300.037330826
299.949071562
299.966983657
299.979880762
300.055197142
300.051862099
300.03438635
300.020944628
299.984541136
300.01315771
300.016361551
299.987528528
299.980386582
300.013113938
300.020367501
299.982550063
299.945060476
299.964011898
300.045051665
300.018478976
300.056292272
300.037280631
299.967408332
299.947966567
299.934857036
300.027799794
300.033422212
300.053400872
300.06635854
299.985001304
300.015746116
299.967045668
299.949061429
299.97990459
300.0551792
300.034302184
300.051861571
300.020911239
299.934769671
299.968234886
299.967212524
300.053324121
300.066359431
300.032610413
300.033643487
299.984552299
300.013153482
300.016343051
299.948030649
299.967413943
299.934862317
300.027766561
300.053309013
300.033410363
300.066336797
299.967900209
299.934822592
299.967093227
300.053509452
300.032940906
300.066293496
300.033761756
300.020193259
299.987458425
299.980315234
300.013069028
300.020324359
299.984921108
300.015698385
299.98875049
299.988746614
299.990672041
300.011809828
300.011812052
300.010212139
299.944962264
299.982435717
299.96383066
300.044986226
300.056231727
300.018385356
300.037213828
299.948981237
299.96684523
299.979752402
300.05511743
300.051794531
300.034263878
300.020841883
299.984443771
300.013097127
300.016286432
299.987462864
299.980325416
300.013063149
300.020312884
299.982419414
299.944973435
299.963865503
300.044976279
300.018369462
300.056212348
300.037139811
299.967305625
299.947841998
299.934749411
300.027692326
300.033353107
300.053288284
300.066282734
299.984929867
300.015690899
299.966910085
299.948974449
299.979790007
300.055097713
300.034174996
300.051786723
300.020811669
299.934657682
299.968119118
299.967082923
300.053203556
300.066280749
300.032519492
300.033571833
299.984452977
300.013093053
300.016273545
299.947921223
299.967301662
299.934763865
300.027689104
300.053210407
300.033346876
300.066265835
299.967784019
299.934722992
299.966978959
300.053406976
300.032850676
300.066220494
300.033691021
300.02011874
299.987445651
299.980294501
300.013046669
300.0202984
299.984908813
300.015678049
299.988724238
299.988719349
299.990610123
300.011781161
300.011774553
300.010143464
299.94490102
299.982342819
299.963822152
300.044930367
300.056170248
300.018275022
300.037102087
299.948930728
299.966747107
299.9796805
300.055064234
300.051738235
300.034145981
300.020752371
299.98440472
300.013072231
300.016243218
299.987437082
299.980281921
300.013043298
300.020280153
299.982318626
299.944879907
299.963723579
300.044938653
300.018259421
300.056118405
300.036990025
299.967288079
299.947743606
299.93471946
300.02763048
300.03334033
300.053194504
300.06626662
299.984902332
300.015671008
299.966789732
299.94893136
299.979707792
300.055048469
300.034057601
300.051759497
300.020730482
299.934629294
299.968068888
299.967087994
300.05312805
300.066261523
300.032479224
300.033578796
299.984408008
300.013082924
300.016237393
299.947839919
299.967296381
299.934737623
300.027624231
300.053111867
300.033344326
300.066237189
299.967728522
299.934694162
299.96696861
300.05331846
300.032792356
300.066191156
300.033685283
300.020103783
299.987400036
299.980229635
300.012994454
300.020223813
299.984862038
300.015619248
299.988680214
299.988676749
299.990536998
300.01172893
300.011732483
300.010094065
299.944792126
299.982214608
299.96354028
300.044880558
300.056023268
300.018173736
300.036862248
299.94886304
299.966564809
299.979555621
300.055018353
300.051660442
300.033931331
300.020605773
299.984333688
300.013000317
300.016126728
299.987398687
299.980237403
300.012991085
300.020219307
299.982217421
299.944797867
299.963564904
300.044875865
300.018176062
300.056020481
300.036849139
299.967222799
299.947599677
299.934648756
300.027375028
300.03321576
300.052975109
300.066143109
299.984867107
300.015629972
299.966676672
299.948872403
299.979610986
300.055070022
300.03406669
300.051688708
300.020652047
299.934561399
299.967986291
299.967029399
300.052980188
300.066154332
300.032353174
300.033465064
299.984361949
300.013006816
300.016138167
299.947714869
299.967241495
299.934681099
300.027409087
300.052954227
300.033219986
300.066139503
299.967642576
299.934637163
299.966910571
300.053187085
300.032682112
300.066098485
300.033580446
300.019998481
299.987349132
299.980161908
300.012983047
300.020235958
299.984802522
300.01569766
299.988640287
299.988636328
299.990539743
300.011724568
300.011720653
300.010184542
299.944638806
299.982184055
299.963395641
300.044940007
300.056031722
300.018266159
300.036900676
299.948679925
299.966236569
299.979597871
300.055570224
300.051535506
300.034244984
300.020933369
299.984299399
300.012871472
300.015862337
299.987345168
299.980172771
300.012987905
300.020234355
299.982188675
299.944679899
299.963500885
300.044961589
300.01826401
300.0560439
300.036909482
299.96701818
299.947268143
299.934514879
300.027222003
300.03316777
300.052822209
300.066075785
299.984816571
300.015700658
299.966585024
299.948695911
299.979744873
300.055608514
300.034325688
300.051554527
300.021006787
299.934463891
299.967878339
299.966928133
300.052926106
300.066120658
300.032300832
300.033422329
299.98434558
300.012878576
300.015882837
299.947407123
299.967047889
299.93453481
300.027270756
300.052809694
300.033175749
300.066081592
299.967539319
299.934531738
299.96680041
300.053126385
300.032632709
300.066063602
300.033541187
300.019958341
299.95593178
299.945746035
299.987558273
299.955942476
299.999566023
299.999915531
299.97217504
299.945768639
300.000092775
300.000000523
299.947104196
299.987569807
299.972242888
299.946933985
299.980518001
299.987382197
299.980118933
300.012894372
300.020009268
299.984787117
300.015645964
299.988675144
299.988675557
299.990750343
300.011611311
300.011619686
300.010005598
299.944242159
299.982496464
299.963215092
300.044620379
300.054959687
300.017961186
300.036206256
299.949002724
299.965959587
299.979501506
300.055328708
300.051626588
300.033978427
300.020532212
299.984501743
300.012781917
300.015747996
299.987379616
299.980119577
300.012893148
300.020001406
299.982502859
299.944264304
299.963282258
300.044641496
300.017981679
300.054956375
300.036178643
299.967041468
299.947276325
299.934515971
300.027823553
300.033292818
300.053061345
300.066142942
299.984790247
300.015639263
299.966010961
299.949021287
299.9795957
300.055313851
300.033920576
300.05163682
300.020551135
299.934457661
299.967852977
299.966939991
300.052981053
300.066145114
300.032320566
300.033448261
299.984539616
300.012785125
300.015751361
299.947428821
299.967061904
299.934548912
300.027847444
300.053029087
300.033294143
300.066129272
299.967518074
299.934520083
299.966822128
300.053186252
300.032666867
300.06608625
300.033569829
300.019976059
379.591603288
362.632623363
478.653787801
464.385465693
413.139143408
354.095459371
338.966485573
410.532676718
468.143329499
449.545319716
385.377062435
375.439955799
446.978393015
446.112152284
364.513588351
360.268704451
434.622220861
434.387817228
424.120821374
397.19547025
347.252521371
409.873989912
381.524745374
391.80462442
372.207820877
430.917872179
395.807270728
414.911196098
460.914015187
463.576280169
450.177691078
452.743599713
459.978831698
451.949860686
448.224374671
438.318593258
438.336943414
421.265375306
351.857081079
387.433117876
403.015500829
344.840959537
378.72810607
392.726461764
349.868317023
422.950688396
422.257784321
346.442930438
342.595987112
412.39964111
412.335030142
396.710878714
370.200788661
333.165312314
386.608217175
361.320758685
362.619045253
355.131367399
440.162766231
424.508690207
444.720304195
401.553358944
430.237741539
416.444128441
436.248140068
404.762981446
376.964543243
396.102046441
434.66754294
426.766981609
441.045772847
442.520404083
432.677252703
434.272404925
437.566932429
428.22774272
429.056337799
419.708786634
411.926532735
403.832494994
432.369212345
372.224386504
409.168189437
428.497085163
360.512697813
397.184358923
414.802124663
461.97076921
442.228470485
463.028502299
420.536631737
450.537089116
433.017313135
453.189684082
451.520620601
442.687574332
302.29846882
301.81868727
313.63188001
319.622285842
310.352341406
302.003106177
301.563750477
311.916599589
317.213316208
309.031328697
301.746067087
301.368169312
310.414771614
315.089976256
307.878417775
301.518656126
301.179415143
309.099442375
313.218601936
306.865778803
301.320423077
301.016498599
307.944547645
311.570987013
305.978897906
301.146547497
300.888641544
306.934965899
310.121645246
305.2079774
300.993738481
300.765531209
308.848182853
304.53259839
302.129217098
302.057174028
301.466101275
303.156109072
305.434747507
301.481525625
303.063798452
305.373234922
302.381263505
308.527557354
308.35252959
302.265827438
302.29685609
308.325614912
307.916571813
305.409846228
303.416978702
301.715785069
305.077590255
303.209683415
304.032036767
305.109888328
303.936541841
304.955842032
305.487403932
310.251704543
306.44931998
309.722105397
305.207314463
309.630803577
306.131960852
304.93362246
304.711814226
306.774389697
307.912436212
306.499281761
307.70989792
308.783855133
308.691677161
308.577066972
308.285044991
307.502032463
307.096119577
301.819209212
301.763027306
301.278963241
302.739362896
304.74008579
301.294612082
302.668315009
304.711357124
302.071680791
307.462990623
307.309150042
301.98614294
302.005895491
307.30992751
306.932873322
304.697379845
302.914177449
301.48030051
304.413706652
302.745081641
303.47580512
304.392249913
303.40642653
304.270893879
304.736210721
308.932443398
305.676213406
308.4808977
304.484863988
308.366929092
305.243925911
304.180352863
304.002214901
305.780092131
306.830255962
305.576497304
306.655272252
307.563530491
307.481198956
307.414697009
307.137903409
306.413428777
306.05505452
301.595819761
301.513258898
301.105073639
302.386444633
304.130000432
301.131487119
302.326069003
304.13082403
301.808436425
306.525346651
306.392965173
301.744065994
301.757370451
306.416188022
306.06996071
304.092704609
302.554634073
301.278652301
303.84153841
302.351334273
303.028024695
303.831571309
302.951595218
303.685783567
304.115519335
307.763126445
304.843983338
307.398987285
303.877887474
307.298635607
304.607105419
303.679832613
303.403564921
305.025808629
305.858748304
304.791307461
305.736887865
306.545369236
306.517401847
306.42888187
306.24998446
305.633395678
305.336113792
301.362093764
301.334336386
300.953697783
302.06813477
303.594460204
300.996046985
302.03858266
303.624015426
301.57229163
305.700390669
305.587791068
301.529834924
301.536756629
305.630269088
305.312596746
303.557508023
302.184487508
301.120291864
303.350595255
302.062928431
302.603445513
303.282976271
302.586819621
303.230361569
303.534689097
306.737773007
304.132094034
306.45216272
303.374905855
306.319369584
303.928541267
303.11806085
303.003889643
304.293708045
305.015893992
304.190860413
305.013094118
305.623968038
305.61643099
305.612344065
305.390637147
304.809479339
304.548489163
301.195793766
301.146581393
300.823156387
301.804603543
303.127611579
300.871899387
301.77942338
303.17943641
301.364968558
304.975418483
304.881221431
301.341637122
301.342072939
304.939661421
304.647199318
303.093264543
301.868732011
300.96757562
302.914507494
301.766185181
302.24703471
302.81871288
302.242168729
302.787565376
303.036630267
305.820926085
303.511833321
305.619650191
302.905483134
305.465769055
303.352483856
302.64539898
302.556142015
303.679741908
304.350957419
303.607146759
304.346093873
304.884806921
304.858954395
304.870825743
304.647923511
304.092742891
303.87795692
301.021295995
301.009358009
300.714257191
301.56191096
302.717813297
300.769384187
301.558842213
302.790813056
301.188167811
304.338825425
304.2618737
301.178837815
301.173189115
304.333471223
304.063992418
302.693875947
301.638222251
300.83599673
302.536050044
301.514014146
301.949991671
302.454925109
301.94892971
302.409522137
302.643311296
305.058471811
303.082961171
304.897098295
302.516058895
304.757122494
302.954852799
302.327905957
302.17678765
303.19713714
303.724169625
303.103318522
303.749080196
304.182387286
304.17626591
304.20555475
303.997705293
303.579344977
303.318634904
301.03006644
303.779896684
303.718214068
301.034734813
301.028253738
303.801211207
303.553117898
302.339617602
301.400929034
300.732416125
302.210650758
301.328301022
302.269084325
304.384634544
302.629418167
304.266616144
302.190975573
304.128238282
302.5233795
303.573584323
303.574981456
303.675494756
303.488094914
303.048008671
302.916542958
315.643223426
315.0250842
383.371294274
406.790891883
367.384055702
313.369265008
312.484617844
373.680046517
395.990615444
358.885473744
311.531671903
310.515396914
364.989629912
385.975535641
351.484317936
310.035905684
309.089827829
357.26710217
376.785761782
345.08935071
308.753785974
307.738090899
350.456377438
368.39591148
339.506412112
307.648431084
306.625441926
344.392228356
360.777199934
334.574200638
306.702132584
305.794824064
339.043079521
353.903317428
330.290399006
305.871253846
304.975597183
334.318100152
347.721286434
326.53432991
305.141289077
304.284064189
330.127861378
342.184068423
323.219074186
304.511046163
303.755988108
326.441385854
337.23907688
320.352666038
303.945626952
303.233498327
323.177717744
332.831619892
317.801770239
303.449812453
302.78847605
320.311626646
328.91110388
315.550080797
303.019294022
302.445032356
317.79856996
325.432193831
313.586163049
302.635602809
302.107517377
315.581161876
322.349472238
311.866153238
318.597963184
317.332771036
311.089270132
323.168739492
336.391641161
310.275608046
321.660251784
334.392795412
316.769871699
352.799106782
352.644940589
314.603896405
315.535506233
350.008721366
349.181835878
338.958401682
330.401158788
313.537098121
335.94969116
327.244758348
332.411844372
342.844203468
329.957272499
339.247564069
344.506572742
373.314241752
355.774623648
363.049643186
341.193473092
368.285272199
350.546599575
346.136762619
341.337002523
357.878149836
364.912532288
353.130758036
360.39168934
369.70453793
369.353912774
365.172318768
364.25365755
364.206588973
358.43512156
316.005468378
315.01528224
309.351982374
319.912424322
331.35136759
308.848309237
318.746088194
329.811677203
314.304638595
345.883398404
345.645564834
312.574669095
313.330836587
343.668546726
342.810962043
333.241220255
325.231510778
311.606869961
330.922897746
323.474237244
327.528558672
336.162626872
325.961114535
334.024795283
338.171569413
363.648872155
346.99964141
355.140760262
335.073280153
359.331872499
342.639489439
338.415267648
336.081805097
349.090696092
355.606463439
346.124125441
352.401356715
360.063409088
359.645791463
356.737325848
356.009850793
354.556194506
351.126406871
313.365143258
312.534134108
307.972367179
317.093902392
327.192114581
307.577121262
316.0897965
325.939124319
312.277477176
340.107107313
339.801082552
310.927259811
311.529140628
338.30459189
337.420866755
328.570243538
321.133989264
309.787488335
326.583020676
319.645280156
323.474142857
330.731700145
322.08370428
328.864884658
332.429953126
355.200861302
339.708211591
348.292999529
330.343061011
351.72380707
337.36614875
332.140296614
330.144693868
341.804614251
347.726148289
339.153883406
344.891946403
351.781399195
351.326991213
348.853868171
348.120246655
346.341589952
343.468893547
311.188443206
310.545351832
306.836365385
314.674589705
323.658904114
306.527130695
313.872607182
322.640711318
310.636429563
335.187444629
334.826805126
309.525009033
309.994547541
333.692204503
332.803286875
324.614293622
317.735748822
308.325038062
322.952339338
316.557773783
319.990664607
326.424915323
318.892102304
324.609933375
327.802622886
348.307361756
334.870899169
342.295547092
325.916116763
345.011192367
331.729051675
326.933892787
325.306227605
335.926010369
341.299659514
333.373406185
338.557595246
344.958625304
344.659151314
342.128823976
341.39053123
340.570802733
336.956124026
309.773233665
309.243794457
305.954349336
312.77595696
320.666022248
305.658875684
312.129814818
319.835420364
309.250986569
330.941189954
330.552836936
308.34303498
308.715904858
329.688284236
328.819402691
321.357517933
315.437477021
307.248330372
319.925614611
314.026886737
317.407088376
322.714256415
316.545859112
321.51058303
324.065642787
341.870410413
329.511085855
337.037540343
322.191453026
338.953408212
326.858051802
323.589781798
322.245553324
330.847409958
335.377763601
329.097645117
333.471075917
338.632615811
338.277091093
336.599014999
335.816583183
334.386646921
331.349708615
308.277237351
307.82077094
305.147175385
311.079404059
318.082094934
304.9568813
310.507452426
317.390306948
308.048952276
327.241945459
326.845185634
307.313698999
307.617589218
326.180082618
325.353330309
318.54416961
313.085196982
306.212066924
317.383815423
312.28633635
314.978469548
319.450425666
314.219774927
318.402920684
320.575380123
336.232217043
325.008573204
332.461092731
319.321960897
333.930751286
323.525165843
319.873268311
318.735868477
326.365871344
330.391000591
324.825398496
328.734025552
333.270905476
332.868224005
331.533604271
330.896766016
329.172459032
327.425120196
307.014506014
306.64314597
304.462512749
309.580829985
315.825441009
304.307798124
309.115866322
315.252018137
307.031485291
323.995406744
323.619976918
306.414585009
306.653674038
323.090602588
322.317288007
316.222205565
311.47822353
305.345320973
315.160197397
310.467381532
313.019667152
316.959910915
312.250292573
315.785743651
317.705982181
331.462552164
321.289931357
328.427856005
316.575211002
329.444464581
319.996609264
317.446793808
315.821363837
322.93322881
326.344605372
321.242885202
324.726001264
328.872229037
328.493714366
327.202296268
326.577592945
324.876776009
323.321988448
306.136655967
305.667703934
303.904440495
308.365543792
313.864491791
303.754252955
307.930305829
313.387769221
306.152545577
321.134067398
320.777404115
305.639875465
305.846361537
320.363075901
319.637905183
314.111931373
309.746833054
304.677327533
313.192794105
308.892581629
311.211987937
314.502796534
310.685313077
313.797771887
315.392456635
327.451918078
318.663630545
324.891784536
314.25280944
325.66777935
317.061891889
314.708873238
313.911994817
319.548472627
322.564701424
318.504192098
321.448161847
324.785275576
324.543414384
323.420380342
322.930656087
321.821103452
320.4964419
305.220431588
304.970749062
303.387123539
307.261705597
312.142030297
303.300667782
306.941590442
311.757962555
305.374468318
318.605717985
318.269199948
304.953122566
305.110954516
317.950552054
317.275990575
312.280956876
308.303164098
304.028310073
311.528657601
307.814380851
309.659303507
312.446614773
309.235336163
311.843144757
313.208597667
323.854127575
315.878944798
321.812233047
312.462685864
322.358000932
314.972950702
312.432633696
311.760492408
316.725769671
319.376924192
315.822837326
318.448632463
321.287269792
321.074815139
320.336384391
319.913692962
318.588611522
317.489014256
304.455192437
304.243383632
302.968870051
306.313052406
310.637423886
302.879231663
306.044030096
310.324033341
304.710644663
316.371936256
316.065257069
304.348827381
304.471222582
315.81710067
315.19415726
310.752388412
307.30852331
303.477946913
310.064617366
306.683959946
308.413263227
310.866580481
307.975122131
310.181342469
311.546336023
320.760961803
313.557359707
319.10094646
310.742431586
319.418334894
312.760178629
310.934032496
309.959734404
314.56019198
316.799046562
313.559372346
315.891950745
318.390315824
318.392516023
317.55393355
317.166363743
316.29296688
314.909406373
303.909328368
303.732882891
302.577789818
305.525087534
309.316076912
302.531966844
305.308340129
309.070221801
304.108339368
314.394895749
314.113558936
303.822475677
303.914003018
313.928720932
313.350634981
309.363480451
306.221833583
303.046106953
308.764480375
305.693345458
307.244231436
309.284960867
306.887348189
308.7199941
309.931253694
318.072392284
311.909811071
316.699033811
309.247008674
316.922786205
311.234457297
309.222044293
308.41376299
312.388182903
314.372694672
311.553935463
313.621782957
315.898952388
315.768180521
315.126124062
314.712722915
313.851161438
312.682601871
303.336653011
303.19612911
302.237544022
304.809645668
308.15417036
302.210170422
304.622326268
307.961508026
303.583282617
312.646008575
312.388471823
303.353952072
303.428120381
312.258321708
311.725820721
308.150398651
305.31136371
302.628263876
307.657695059
305.003723734
306.232644659
307.94993558
306.026086383
307.653769557
308.522472279
315.692688509
310.155599648
314.598632456
308.043171354
314.705444103
309.567633949
307.798676274
307.429418445
310.570043624
312.305246751
310.116490544
311.877729914
313.651410302
313.51485644
313.177727685
312.844300667
311.782533415
311.143430886
302.931444486
302.736857895
301.955900574
304.199280702
307.132678209
301.929598292
304.027737381
306.986645947
303.130608729
311.10057418
310.872440501
302.942605748
302.997457711
310.781967031
310.294405669
307.132279178
304.671683072
302.271839962
306.683322279
304.285253508
305.46083072
306.982062578
305.217257567
306.599333513
307.340916818
313.632420671
308.63883504
312.750912487
306.918308519
312.753551867
308.154396016
306.890253841
306.310777125
309.268045776
310.729240911
308.704868442
310.276184996
311.815739556
311.821479436
311.402915407
311.092204042
310.369330462
309.513753458
302.496524202
302.338301113
301.694051395
303.640904007
306.229467955
301.683940846
303.501910315
306.125924933
302.733830081
309.734281464
309.533464808
302.583254084
302.624692857
309.477347916
309.032193191
306.211998046
303.993680423
301.992229648
305.839104644
303.759334011
304.691252758
305.970584796
304.497467239
305.65593912
306.387535529
311.839396514
307.572308001
311.135060344
305.972872394
311.053658531
306.968157569
305.825028946
305.351555536
307.916629862
309.213057693
307.541990255
308.937784379
310.224982085
310.143018902
309.862120178
309.51928998
308.820288538
308.094892268
318.428217146
317.74008837
394.197908125
418.319953426
377.253575473
322.652946847
321.05342881
313.100304771
327.539781703
342.673944232
312.231521639
325.579289139
340.055668482
319.885239522
361.251636511
361.18073126
317.140697133
318.361497816
357.663237352
356.883879015
345.725120723
335.468761125
316.329596988
342.196957387
332.864942531
337.605171103
349.320475766
335.332527819
346.354735384
352.311234949
383.475699792
363.661528304
372.214077784
348.687979896
378.307539231
359.783836528
352.835151072
349.589212951
366.248820287
374.302728556
362.335470452
370.098089522
379.507783679
378.892084285
375.214746599
374.347734558
372.875422527
368.654690181
336.068225779
336.861151512
434.068644701
455.776667346
420.684648598
327.59516837
327.388985003
419.512678216
443.052375588
403.442101926
322.299439671
322.129092988
406.258680676
430.493477824
389.201618069
345.342510334
340.440030676
327.033144047
352.709704348
376.459457951
323.694433358
346.648435764
369.221023232
339.373038964
401.804885003
402.396799241
331.661128547
334.470972314
393.824240606
393.605678346
382.703201706
367.326009298
332.255550289
374.34068314
360.574633773
367.115799686
385.176640244
360.792626771
377.945046952
390.605229549
427.118046623
404.584791763
411.772982503
382.678458725
418.703143831
397.211651334
390.997575666
384.251743334
408.305322812
418.155702556
400.424395079
410.151172241
423.686569236
422.476953848
415.847486673
414.402521283
415.419717887
408.004160526
334.190469791
331.107371514
320.10436177
340.871498852
361.603357787
318.114734388
336.952737049
356.533801187
330.017234953
385.093082045
385.409644096
324.868253489
326.913257604
378.925230597
378.419024997
366.599538986
352.46585468
324.538517571
360.343034589
347.788109488
353.62813966
369.358447278
349.401545962
364.184254147
373.969620083
410.237397436
387.250511604
395.975925827
367.970389444
402.881299032
381.298067568
374.078574418
368.970618037
390.708593006
400.456166505
384.573279478
393.97894005
406.206152617
405.151057339
399.669908167
398.350009829
398.004844489
391.702250915
328.24635543
324.80044961
316.160533237
333.354979883
350.81977983
314.565982925
330.318587777
347.185356969
324.219143673
371.807884986
371.911659088
320.353609309
321.88786554
367.102667505
366.413255815
354.886698987
343.711103593
319.468242426
349.952966027
338.581003684
345.176197472
359.076243873
341.080767484
353.614957614
362.591921876
396.180956439
375.76811138
382.967585087
356.774718952
389.422510143
368.406518218
363.961342689
356.933311616
378.325864847
386.861412319
371.612374749
380.520765658
392.331830863
391.72884317
386.047590929
384.849701461
385.869159711
378.108308097
306.051445285
305.276341204
300.871342766
300.86706487
300.614232774
301.351689798
302.358634395
300.67469904
301.357522908
302.448804774
301.673827984
302.100642124
301.70553426
302.113643233
301.971820814
301.922262637
302.727067468
303.176510888
302.715684188
303.274956568
300.741616965
300.74556558
300.530472745
301.165810339
302.043350371
300.592179121
301.183379264
302.149222401
301.43677633
301.800048521
301.480738216
301.827565019
301.671638726
301.638032277
302.331013792
302.719969308
302.340379365
302.841105839
303.089894588
303.090917198
300.861066133
300.65934995
307.730234576
303.943128582
300.743928677
300.575655307
304.601182447
306.750234866
303.430011765
300.892583944
303.289378198
303.242042771
300.9085607
300.898731047
303.334235225
303.105000805
302.032214574
301.198259004
300.632852762
301.92204204