/*--------------------------------*- C++ -*----------------------------------*\
  =========                 |
  \\      /  F ield         | OpenFOAM: The Open Source CFD Toolbox
   \\    /   O peration     | Website:  https://openfoam.org
    \\  /    A nd           | Version:  9
     \\/     M anipulation  |
\*---------------------------------------------------------------------------*/
FoamFile
{
    format      ascii;
    class       volScalarField;
    location    "0.199939";
    object      static(p);
}
// * * * * * * * * * * * * * * * * * * * * * * * * * * * * * * * * * * * * * //

dimensions      [1 -1 -2 0 0 0 0];

internalField   nonuniform List<scalar> 
132485
(
0.180086
0.180084
0.180079
0.180086
0.179395
0.179395
0.180077
0.180084
0.179395
0.179395
0.180055
0.180079
0.180077
0.180055
0.180078
0.177266
0.177264
0.177258
0.177266
0.176574
0.176574
0.177257
0.177264
0.176574
0.176574
0.177234
0.177258
0.177257
0.177234
0.177258
0.174445
0.174443
0.174437
0.174445
0.173753
0.173753
0.174436
0.174443
0.173753
0.173754
0.174413
0.174437
0.174436
0.174413
0.174437
0.171624
0.171622
0.171616
0.171624
0.170933
0.170933
0.171615
0.171622
0.170933
0.170933
0.171592
0.171616
0.171615
0.171592
0.171616
0.168803
0.168801
0.168795
0.168803
0.168112
0.168112
0.168794
0.168801
0.168112
0.168112
0.168771
0.168795
0.168794
0.168771
0.168795
0.165982
0.16598
0.165975
0.165982
0.165291
0.165291
0.165973
0.16598
0.165291
0.165291
0.165951
0.165975
0.165973
0.165951
0.165974
0.163162
0.16316
0.163154
0.163162
0.16247
0.16247
0.163153
0.16316
0.16247
0.16247
0.16313
0.163154
0.163153
0.16313
0.163153
0.181531
0.181523
0.181532
0.181532
0.180081
0.180089
0.17871
0.178702
0.180079
0.178711
0.180092
0.180092
0.180096
0.178699
0.178699
0.178694
0.180084
0.180074
0.180054
0.178704
0.178707
0.178716
0.178737
0.18008
0.180056
0.180072
0.178706
0.178711
0.178734
0.178718
0.180092
0.178712
0.178698
0.180081
0.180089
0.17871
0.178702
0.180074
0.180084
0.180054
0.178704
0.178716
0.178707
0.178737
0.180035
0.180055
0.180067
0.178712
0.178755
0.178735
0.178724
0.180079
0.178711
0.180056
0.18008
0.180072
0.178706
0.178734
0.178711
0.178718
0.180064
0.180073
0.180023
0.178736
0.178727
0.178717
0.178768
0.180092
0.178712
0.178698
0.180055
0.180035
0.180067
0.178712
0.178735
0.178755
0.178724
0.180072
0.180064
0.180022
0.178736
0.178718
0.178727
0.178768
0.178712
0.17726
0.177268
0.175889
0.175881
0.177259
0.175891
0.177271
0.177271
0.177275
0.175878
0.175878
0.175873
0.177263
0.177253
0.177233
0.175883
0.175886
0.175895
0.175916
0.177259
0.177236
0.177251
0.175885
0.17589
0.175913
0.175897
0.177271
0.175891
0.175877
0.17726
0.177268
0.175889
0.175881
0.177253
0.177263
0.177233
0.175883
0.175895
0.175886
0.175916
0.177214
0.177234
0.177246
0.175892
0.175935
0.175914
0.175903
0.177259
0.175891
0.177236
0.177259
0.177251
0.175885
0.175913
0.17589
0.175897
0.177243
0.177252
0.177202
0.175915
0.175906
0.175896
0.175947
0.177271
0.175891
0.175877
0.177234
0.177214
0.177246
0.175892
0.175914
0.175935
0.175903
0.177251
0.177243
0.177202
0.175915
0.175897
0.175906
0.175947
0.175891
0.174439
0.174447
0.173068
0.173061
0.174438
0.17307
0.17445
0.17445
0.174455
0.173057
0.173057
0.173052
0.174442
0.174432
0.174412
0.173062
0.173066
0.173074
0.173095
0.174438
0.174415
0.17443
0.173065
0.173069
0.173092
0.173076
0.17445
0.17307
0.173057
0.174439
0.174447
0.173068
0.173061
0.174432
0.174442
0.174412
0.173062
0.173074
0.173066
0.173095
0.174393
0.174414
0.174426
0.173071
0.173114
0.173094
0.173082
0.174438
0.17307
0.174415
0.174438
0.174431
0.173065
0.173092
0.173069
0.173076
0.174423
0.174431
0.174381
0.173094
0.173085
0.173076
0.173126
0.17445
0.17307
0.173057
0.174414
0.174393
0.174426
0.173071
0.173094
0.173114
0.173082
0.17443
0.174423
0.174381
0.173094
0.173076
0.173085
0.173126
0.17307
0.171618
0.171626
0.170247
0.17024
0.171617
0.170249
0.171629
0.171629
0.171634
0.170236
0.170236
0.170231
0.171621
0.171611
0.171591
0.170242
0.170245
0.170254
0.170274
0.171617
0.171594
0.17161
0.170244
0.170248
0.170271
0.170255
0.171629
0.170249
0.170236
0.171618
0.171626
0.170247
0.17024
0.171611
0.171621
0.171591
0.170242
0.170254
0.170245
0.170274
0.171573
0.171593
0.171605
0.17025
0.170293
0.170273
0.170261
0.171617
0.170249
0.171594
0.171617
0.17161
0.170244
0.170271
0.170248
0.170255
0.171602
0.17161
0.17156
0.170273
0.170264
0.170255
0.170305
0.171629
0.170249
0.170236
0.171593
0.171573
0.171605
0.17025
0.170273
0.170293
0.170261
0.17161
0.171602
0.17156
0.170273
0.170255
0.170264
0.170306
0.170249
0.168797
0.168805
0.167426
0.167419
0.168796
0.167428
0.168808
0.168808
0.168813
0.167415
0.167415
0.167411
0.1688
0.168791
0.16877
0.167421
0.167424
0.167433
0.167453
0.168796
0.168773
0.168789
0.167423
0.167428
0.167451
0.167434
0.168809
0.167428
0.167415
0.168797
0.168805
0.167426
0.167419
0.168791
0.1688
0.16877
0.167421
0.167433
0.167424
0.167453
0.168752
0.168772
0.168784
0.167429
0.167472
0.167452
0.167441
0.168796
0.167428
0.168773
0.168796
0.168789
0.167423
0.167451
0.167428
0.167434
0.168781
0.168789
0.168739
0.167452
0.167443
0.167434
0.167484
0.168809
0.167428
0.167415
0.168772
0.168752
0.168784
0.167429
0.167452
0.167472
0.167441
0.168789
0.168781
0.168739
0.167452
0.167434
0.167443
0.167485
0.167428
0.165977
0.165985
0.164606
0.164598
0.165975
0.164607
0.165988
0.165988
0.165992
0.164595
0.164595
0.16459
0.165979
0.16597
0.16595
0.1646
0.164603
0.164612
0.164633
0.165976
0.165952
0.165968
0.164602
0.164607
0.16463
0.164614
0.165988
0.164608
0.164594
0.165977
0.165985
0.164606
0.164598
0.16597
0.16598
0.16595
0.1646
0.164612
0.164603
0.164633
0.165931
0.165951
0.165963
0.164608
0.164651
0.164631
0.16462
0.165975
0.164607
0.165952
0.165976
0.165968
0.164602
0.16463
0.164607
0.164614
0.16596
0.165968
0.165919
0.164632
0.164623
0.164613
0.164664
0.165988
0.164608
0.164594
0.165951
0.165931
0.165963
0.164608
0.164631
0.164651
0.16462
0.165968
0.16596
0.165918
0.164632
0.164614
0.164622
0.164664
0.164608
0.163156
0.163164
0.161785
0.161777
0.163155
0.161787
0.163167
0.163167
0.163171
0.161774
0.161774
0.161769
0.163159
0.163149
0.163129
0.161779
0.161782
0.161791
0.161812
0.163154
0.163132
0.163147
0.161782
0.161786
0.161809
0.161793
0.163167
0.161786
0.161773
0.163156
0.163164
0.161785
0.161777
0.163149
0.163159
0.163129
0.161779
0.161791
0.161782
0.161812
0.16311
0.16313
0.163142
0.161788
0.161831
0.16181
0.161799
0.163155
0.161787
0.163132
0.163154
0.163147
0.161782
0.161809
0.161786
0.161793
0.163139
0.163148
0.163098
0.161811
0.161802
0.161792
0.161843
0.163167
0.161786
0.161773
0.16313
0.16311
0.163142
0.161788
0.16181
0.161831
0.161799
0.163147
0.163139
0.163098
0.161811
0.161793
0.161802
0.161843
0.161787
0.160341
0.160339
0.160334
0.160341
0.159649
0.159649
0.160331
0.160339
0.159649
0.15965
0.160309
0.160334
0.160331
0.160309
0.160333
0.160335
0.160343
0.158964
0.158956
0.160334
0.158966
0.160346
0.160346
0.160351
0.158953
0.158953
0.158948
0.160337
0.160328
0.160308
0.158958
0.158961
0.15897
0.158991
0.160334
0.16031
0.160327
0.158961
0.158965
0.158988
0.158972
0.160347
0.158965
0.158952
0.160335
0.160343
0.158964
0.158956
0.160328
0.160337
0.160308
0.158958
0.15897
0.158961
0.158991
0.160289
0.160309
0.160322
0.158967
0.15901
0.15899
0.158978
0.160334
0.158966
0.16031
0.160334
0.160327
0.158961
0.158988
0.158965
0.158972
0.160319
0.160327
0.160277
0.15899
0.158981
0.158972
0.159022
0.160347
0.158965
0.158952
0.16031
0.160289
0.160322
0.158967
0.15899
0.15901
0.158978
0.160326
0.160319
0.160277
0.15899
0.158972
0.158981
0.159022
0.158966
0.413888
0.413899
0.412541
0.412816
0.413084
0.41085
0.410889
0.410555
0.409808
0.410111
0.410294
0.414025
0.4144
0.414573
0.412377
0.412446
0.41278
0.412946
0.414617
0.414537
0.412419
0.41295
0.412905
0.414062
0.412575
0.412986
0.41173
0.411636
0.414176
0.414369
0.412537
0.412719
0.414488
0.414311
0.412811
0.412713
0.413764
0.412381
0.410832
0.410908
0.411035
0.409344
0.409418
0.409508
0.410888
0.411157
0.411252
0.409377
0.409412
0.40965
0.409758
0.411278
0.411251
0.409485
0.409772
0.409719
0.410968
0.409528
0.410732
0.410444
0.410516
0.4091
0.40923
0.409073
0.40908
0.410245
0.408992
0.408958
0.410795
0.409307
0.410899
0.410984
0.409408
0.409539
0.411058
0.411049
0.409601
0.409581
0.410724
0.409424
0.413627
0.413849
0.413882
0.414159
0.412357
0.412426
0.412597
0.414013
0.413249
0.413711
0.412083
0.412366
0.411911
0.412079
0.414064
0.412394
0.357185
0.357192
0.356496
0.356494
0.357181
0.354394
0.3544
0.353704
0.353703
0.35439
0.351602
0.351608
0.350912
0.350911
0.351598
0.348811
0.348817
0.348121
0.34812
0.348807
0.346019
0.346025
0.345329
0.345329
0.346015
0.343228
0.343234
0.342538
0.342537
0.343223
0.340436
0.340442
0.339746
0.340432
0.357155
0.35584
0.35717
0.357174
0.357156
0.355828
0.355825
0.355843
0.357189
0.357152
0.357177
0.355813
0.355807
0.35585
0.355819
0.357194
0.35719
0.355804
0.355803
0.355805
0.357141
0.357137
0.355848
0.35585
0.357183
0.357183
0.357162
0.355811
0.355809
0.355811
0.355831
0.357104
0.355891
0.357152
0.357138
0.355847
0.355862
0.357136
0.357168
0.355864
0.35583
0.35718
0.355816
0.354363
0.353049
0.354378
0.354382
0.354364
0.353036
0.353033
0.353051
0.354397
0.35436
0.354386
0.353021
0.353015
0.353059
0.353027
0.354402
0.354399
0.353012
0.353011
0.353014
0.35435
0.354345
0.353056
0.353059
0.354391
0.354391
0.35437
0.353019
0.353017
0.353019
0.353039
0.354312
0.3531
0.35436
0.354346
0.353056
0.353071
0.354344
0.354377
0.353072
0.353038
0.354388
0.353024
0.351571
0.350257
0.351587
0.351591
0.351573
0.350244
0.350242
0.350259
0.351606
0.351568
0.351594
0.35023
0.350224
0.350267
0.350236
0.351611
0.351607
0.350221
0.35022
0.350222
0.351558
0.351554
0.350265
0.350267
0.3516
0.351599
0.351579
0.350227
0.350225
0.350227
0.350248
0.35152
0.350308
0.351568
0.351555
0.350264
0.350279
0.351553
0.351585
0.35028
0.350247
0.351597
0.350233
0.34878
0.347466
0.348795
0.348799
0.348781
0.347453
0.34745
0.347468
0.348814
0.348777
0.348802
0.347438
0.347432
0.347475
0.347444
0.348819
0.348815
0.347429
0.347428
0.34743
0.348767
0.348763
0.347473
0.347476
0.348808
0.348807
0.348787
0.347436
0.347434
0.347436
0.347456
0.348729
0.347517
0.348777
0.348763
0.347473
0.347487
0.348761
0.348793
0.347489
0.347455
0.348805
0.347441
0.345988
0.344674
0.346003
0.346008
0.34599
0.344661
0.344659
0.344676
0.346023
0.345985
0.346011
0.344647
0.344641
0.344684
0.344653
0.346028
0.346024
0.344638
0.344637
0.344639
0.345975
0.345971
0.344682
0.344684
0.346017
0.346016
0.345996
0.344644
0.344642
0.344644
0.344665
0.345937
0.344725
0.345985
0.345972
0.344681
0.344696
0.34597
0.346002
0.344697
0.344664
0.346014
0.344649
0.343197
0.341883
0.343212
0.343216
0.343198
0.34187
0.341867
0.341885
0.343231
0.343194
0.343219
0.341855
0.34185
0.341893
0.341861
0.343236
0.343232
0.341846
0.341845
0.341847
0.343184
0.34318
0.341891
0.341893
0.343225
0.343224
0.343204
0.341853
0.341851
0.341853
0.341873
0.343146
0.341934
0.343194
0.34318
0.34189
0.341905
0.343178
0.343211
0.341906
0.341872
0.343222
0.341858
0.34044
0.340402
0.340428
0.339064
0.339058
0.339101
0.33907
0.340445
0.340441
0.339055
0.339054
0.339056
0.340434
0.340433
0.340413
0.339061
0.33906
0.339061
0.339082
0.340387
0.340419
0.339115
0.339081
0.340431
0.339067
0.396354
0.396339
0.395703
0.395596
0.396285
0.393528
0.393524
0.392874
0.392795
0.393487
0.390716
0.390718
0.390055
0.389998
0.390693
0.387911
0.387918
0.387245
0.387204
0.387901
0.385112
0.385121
0.384441
0.38441
0.385108
0.382317
0.382326
0.38164
0.381618
0.382315
0.379522
0.379532
0.378842
0.378826
0.379522
0.376729
0.376738
0.376046
0.376034
0.376729
0.373937
0.373945
0.373252
0.373243
0.373935
0.371144
0.371152
0.370458
0.370451
0.371142
0.368352
0.368359
0.367665
0.36766
0.36835
0.36556
0.365567
0.364872
0.364868
0.365557
0.362769
0.362775
0.36208
0.362077
0.362765
0.359977
0.359983
0.359288
0.359286
0.359973
0.396356
0.39502
0.396367
0.396384
0.396396
0.395004
0.395009
0.395053
0.396363
0.396363
0.396391
0.394963
0.394963
0.395032
0.395007
0.396377
0.396363
0.394938
0.394967
0.394962
0.396286
0.396301
0.394981
0.394997
0.396281
0.396315
0.396293
0.394905
0.394904
0.394939
0.394958
0.396317
0.395094
0.396415
0.396381
0.395087
0.395084
0.396369
0.396398
0.395076
0.395042
0.396365
0.394989
0.393522
0.392192
0.393537
0.393546
0.393553
0.39218
0.392181
0.392219
0.393538
0.393523
0.393555
0.392144
0.392145
0.392203
0.39218
0.393552
0.393543
0.392128
0.392149
0.392148
0.393472
0.393476
0.39217
0.392177
0.393485
0.393518
0.393493
0.392113
0.39211
0.392144
0.392159
0.393486
0.392265
0.393574
0.393546
0.392252
0.392254
0.393538
0.393574
0.39225
0.392221
0.393547
0.392175
0.390702
0.389378
0.390719
0.390725
0.390726
0.389368
0.389366
0.389399
0.390725
0.390701
0.390734
0.389336
0.389336
0.389388
0.389365
0.390739
0.390733
0.389326
0.389341
0.389341
0.390664
0.390661
0.389365
0.389367
0.390692
0.390722
0.390695
0.389321
0.389317
0.389347
0.389361
0.390665
0.389446
0.390745
0.39072
0.389426
0.389432
0.390715
0.390754
0.38943
0.389403
0.390736
0.389366
0.387892
0.386572
0.387911
0.387915
0.387911
0.386562
0.38656
0.386589
0.38792
0.38789
0.387924
0.386535
0.386534
0.386582
0.386558
0.387934
0.387929
0.386527
0.386538
0.386539
0.387863
0.387856
0.386566
0.386565
0.3879
0.387924
0.387897
0.386528
0.386525
0.38655
0.386564
0.387853
0.386636
0.387925
0.387904
0.386609
0.386619
0.387899
0.387939
0.386618
0.386591
0.38793
0.386561
0.38509
0.383772
0.385108
0.385112
0.385103
0.383762
0.383759
0.383784
0.38512
0.385087
0.38512
0.383738
0.383736
0.383781
0.383756
0.385133
0.385129
0.383731
0.383739
0.38374
0.385066
0.385057
0.38377
0.383768
0.385107
0.385127
0.385099
0.383736
0.383732
0.383752
0.383766
0.385047
0.383831
0.385112
0.385094
0.3838
0.383811
0.38509
0.385129
0.383811
0.383783
0.385127
0.383758
0.382291
0.380974
0.38231
0.382313
0.382301
0.380964
0.380961
0.380984
0.382323
0.382289
0.382319
0.380943
0.38094
0.380984
0.380957
0.382335
0.38233
0.380937
0.380942
0.380943
0.382271
0.382262
0.380976
0.380974
0.382314
0.382329
0.382302
0.380944
0.380939
0.380955
0.380969
0.382246
0.381031
0.382305
0.382289
0.380996
0.381008
0.382286
0.382322
0.381008
0.380979
0.382326
0.380959
0.379495
0.378179
0.379513
0.379516
0.379503
0.378169
0.378166
0.378187
0.379528
0.379493
0.379521
0.378149
0.378145
0.378189
0.378161
0.379539
0.379534
0.378143
0.378146
0.378147
0.379477
0.379469
0.378183
0.378182
0.379521
0.379532
0.379506
0.37815
0.378146
0.378158
0.378174
0.379448
0.378234
0.379503
0.379488
0.378195
0.378209
0.379485
0.37952
0.378209
0.378178
0.379528
0.378161
0.376701
0.375385
0.376718
0.376721
0.376706
0.375374
0.375371
0.375391
0.376734
0.376698
0.376726
0.375356
0.375352
0.375395
0.375366
0.376744
0.376739
0.37535
0.375351
0.375353
0.376684
0.376677
0.37539
0.37539
0.376728
0.376736
0.376711
0.375357
0.375353
0.375362
0.375379
0.376652
0.375438
0.376705
0.37669
0.375398
0.375412
0.376687
0.376722
0.375413
0.375381
0.376731
0.375365
0.373907
0.372592
0.373924
0.373928
0.373912
0.372581
0.372578
0.372597
0.373941
0.373905
0.373932
0.372564
0.372559
0.372602
0.372572
0.373949
0.373945
0.372557
0.372557
0.372559
0.373892
0.373886
0.372598
0.372599
0.373936
0.373941
0.373917
0.372564
0.372561
0.372568
0.372585
0.373858
0.372644
0.373909
0.373894
0.372603
0.372617
0.373892
0.373925
0.372618
0.372585
0.373936
0.372571
0.371115
0.3698
0.371131
0.371134
0.371118
0.369788
0.369785
0.369804
0.371148
0.371112
0.371138
0.369771
0.369766
0.36981
0.369779
0.371156
0.371151
0.369764
0.369764
0.369766
0.3711
0.371094
0.369806
0.369808
0.371143
0.371146
0.371124
0.369771
0.369768
0.369774
0.369792
0.371064
0.369851
0.371114
0.3711
0.369809
0.369824
0.371098
0.371131
0.369824
0.369791
0.371142
0.369777
0.368322
0.367008
0.368338
0.368342
0.368325
0.366995
0.366992
0.367011
0.368356
0.368319
0.368346
0.366979
0.366974
0.367017
0.366987
0.368363
0.368359
0.366972
0.366971
0.366973
0.368308
0.368303
0.367014
0.367016
0.36835
0.368353
0.368331
0.366979
0.366976
0.36698
0.366999
0.368272
0.367059
0.368321
0.368307
0.367016
0.367031
0.368304
0.368337
0.367031
0.366998
0.368349
0.366984
0.36553
0.364216
0.365546
0.36555
0.365532
0.364203
0.3642
0.364219
0.365564
0.365527
0.365553
0.364188
0.364182
0.364225
0.364194
0.36557
0.365566
0.364179
0.364179
0.364181
0.365516
0.365511
0.364223
0.364225
0.365558
0.365559
0.365538
0.364186
0.364184
0.364187
0.364207
0.365479
0.364267
0.365528
0.365514
0.364223
0.364238
0.365512
0.365544
0.364239
0.364206
0.365556
0.364192
0.362738
0.361424
0.362754
0.362757
0.36274
0.361411
0.361408
0.361426
0.362772
0.362735
0.362761
0.361396
0.36139
0.361434
0.361402
0.362778
0.362774
0.361387
0.361387
0.361389
0.362724
0.36272
0.361431
0.361433
0.362766
0.362767
0.362746
0.361394
0.361392
0.361395
0.361414
0.362687
0.361475
0.362736
0.362722
0.361431
0.361446
0.36272
0.362752
0.361447
0.361413
0.362764
0.3614
0.359946
0.358632
0.359962
0.359966
0.359948
0.358619
0.358617
0.358634
0.35998
0.359943
0.359969
0.358604
0.358599
0.358642
0.358611
0.359986
0.359982
0.358596
0.358595
0.358597
0.359933
0.359928
0.358639
0.358642
0.359975
0.359975
0.359954
0.358602
0.3586
0.358603
0.358623
0.359895
0.358683
0.359943
0.35993
0.358639
0.358654
0.359928
0.35996
0.358655
0.358622
0.359972
0.358608
0.399199
0.399171
0.39854
0.398398
0.399091
0.399208
0.397862
0.399214
0.399245
0.399263
0.397842
0.397857
0.397907
0.399204
0.399229
0.399249
0.397797
0.397795
0.397882
0.397853
0.399222
0.399199
0.39776
0.397801
0.397789
0.399105
0.399132
0.397799
0.397827
0.399081
0.399115
0.399094
0.397707
0.397702
0.397737
0.397759
0.399156
0.397932
0.399266
0.399226
0.397934
0.397923
0.399209
0.399225
0.397912
0.397868
0.399188
0.397809
0.407905
0.407853
0.407145
0.406875
0.407698
0.404971
0.40492
0.404233
0.404001
0.404774
0.402069
0.402027
0.40138
0.401195
0.401916
0.407942
0.406545
0.407942
0.408116
0.408143
0.406528
0.40664
0.406688
0.40789
0.408118
0.408081
0.40646
0.40644
0.406673
0.406608
0.407992
0.407913
0.40639
0.4065
0.406441
0.407521
0.40752
0.406234
0.406254
0.407619
0.407599
0.407578
0.406255
0.406188
0.406191
0.406205
0.407764
0.406516
0.407982
0.407952
0.406587
0.406575
0.407899
0.407847
0.40653
0.406427
0.407788
0.406356
0.404988
0.403616
0.404997
0.405089
0.405113
0.403595
0.403655
0.403708
0.404966
0.405086
0.405079
0.403541
0.403528
0.403686
0.40364
0.405014
0.40496
0.403477
0.403553
0.403514
0.404732
0.40476
0.403434
0.403472
0.404733
0.404739
0.40472
0.403366
0.403326
0.403353
0.403366
0.404866
0.403639
0.405028
0.404984
0.403669
0.40365
0.404946
0.404921
0.403619
0.403541
0.404878
0.403478
0.402083
0.400725
0.402088
0.402141
0.402164
0.400702
0.400733
0.400789
0.40207
0.402132
0.402141
0.400654
0.400646
0.400762
0.400727
0.402096
0.40206
0.400603
0.400659
0.400636
0.401923
0.401957
0.400619
0.400656
0.401892
0.401919
0.401898
0.400524
0.400504
0.400539
0.40056
0.402004
0.400781
0.402133
0.402088
0.400792
0.400776
0.402062
0.402061
0.400756
0.400698
0.402021
0.400636
0.339746
0.336955
0.340406
0.339091
0.340421
0.340425
0.340407
0.339078
0.339076
0.339093
0.340393
0.340388
0.339099
0.339102
0.340354
0.339142
0.340402
0.340389
0.339098
0.339113
0.337614
0.3363
0.337629
0.337633
0.337615
0.336287
0.336284
0.336302
0.337601
0.337597
0.336308
0.33631
0.337563
0.336351
0.337611
0.337597
0.336307
0.336322
0.337596
0.337628
0.337645
0.337651
0.336954
0.337641
0.334853
0.33486
0.334163
0.334163
0.334849
0.337648
0.337611
0.337637
0.336272
0.336267
0.33631
0.336278
0.337653
0.337649
0.336263
0.336262
0.336265
0.337642
0.337641
0.337621
0.33627
0.336268
0.33627
0.33629
0.336323
0.336289
0.337639
0.336275
0.334823
0.333509
0.334838
0.334842
0.334824
0.333496
0.333493
0.333511
0.334857
0.33482
0.334845
0.333481
0.333475
0.333518
0.333487
0.334862
0.334858
0.333472
0.333471
0.333473
0.33481
0.334805
0.333516
0.333519
0.334851
0.33485
0.33483
0.333479
0.333477
0.333478
0.333499
0.334772
0.333559
0.334819
0.334806
0.333515
0.33353
0.334804
0.334836
0.333532
0.333498
0.334848
0.333484
0.0728954
0.0728936
0.0728877
0.0722043
0.0722041
0.0728864
0.072204
0.0722042
0.0728637
0.0728861
0.0728636
0.0728874
0.0700745
0.0700726
0.0700669
0.0700745
0.0693834
0.0693833
0.0700656
0.0700727
0.0693834
0.0693834
0.0700429
0.070067
0.0700657
0.0700428
0.0700666
0.0672536
0.0672519
0.0672461
0.0672538
0.0665625
0.0665624
0.0672448
0.0672517
0.0665624
0.0665626
0.067222
0.0644329
0.0644312
0.0644255
0.0728896
0.0728979
0.0715187
0.0715116
0.0728883
0.0715203
0.0728932
0.0728832
0.0728628
0.071513
0.0715169
0.0715252
0.0715456
0.0728887
0.0728654
0.0728811
0.0715152
0.0715198
0.071543
0.0715268
0.0729009
0.0715207
0.0715072
0.072844
0.0728642
0.0728762
0.0715214
0.0715644
0.0715443
0.0715328
0.0728732
0.0728815
0.0728317
0.0715446
0.0715356
0.0715263
0.0715767
0.0728643
0.0728439
0.0728762
0.0715213
0.0715442
0.0715643
0.0715328
0.0728811
0.0728733
0.0728315
0.0715447
0.0715267
0.0715355
0.071577
0.0715206
0.0700688
0.070077
0.0686979
0.0686905
0.0700675
0.0686996
0.0700799
0.0700799
0.0700845
0.0686869
0.0686869
0.0686821
0.070072
0.0700619
0.0700419
0.0686922
0.0686955
0.0687042
0.0687249
0.0700679
0.0700447
0.0700603
0.0686945
0.068699
0.0687221
0.0687059
0.0700801
0.0686999
0.0686863
0.0700688
0.070077
0.068698
0.0686904
0.070062
0.0700721
0.0700419
0.0686924
0.0687044
0.0686955
0.0687248
0.0700232
0.0700434
0.0700554
0.0687006
0.0687436
0.0687235
0.068712
0.0700675
0.0686996
0.0700448
0.0700677
0.0700603
0.0686947
0.0687224
0.0686988
0.068706
0.0700524
0.0700607
0.0700109
0.0687238
0.0687148
0.0687055
0.0687559
0.0700801
0.0686993
0.0686861
0.0700435
0.0700232
0.0700554
0.0687011
0.0687234
0.0687437
0.068712
0.0700603
0.0700524
0.0700107
0.0687239
0.0687059
0.0687148
0.0687562
0.0686998
0.0672479
0.0672561
0.0658771
0.0658697
0.0672467
0.0658788
0.067259
0.067259
0.0672636
0.065866
0.065866
0.0658612
0.067251
0.067241
0.0672212
0.0658714
0.0658747
0.0658836
0.0659044
0.0672471
0.0672239
0.0672395
0.0658737
0.0658781
0.0659014
0.0658852
0.0672593
0.0658791
0.0658655
0.067248
0.0672559
0.065877
0.0658694
0.0672413
0.0672508
0.0672209
0.0658715
0.0658831
0.0658744
0.0659036
0.0672023
0.0672226
0.0672346
0.0658798
0.0659227
0.0659026
0.0658912
0.0672466
0.0658786
0.0672234
0.0672475
0.0672396
0.0658735
0.065901
0.0658785
0.0658848
0.0672316
0.0672399
0.0671901
0.065903
0.0658939
0.0658846
0.0659351
0.0644272
0.0644352
0.0630563
0.0630487
0.0644259
0.063058
0.0644382
0.0644381
0.0644428
0.0630452
0.0630451
0.0630404
0.0644302
0.0644202
0.0644004
0.0630507
0.0630538
0.0630623
0.063083
0.064426
0.0644031
0.0644188
0.0630531
0.0630571
0.0630808
0.0630644
0.0644385
0.0630577
0.0630445
0.0672468
0.0672445
0.067222
0.0672457
0.0644328
0.0637416
0.0637417
0.064424
0.0644309
0.0637417
0.0637418
0.0644012
0.0644251
0.064424
0.0644011
0.0644249
0.0616122
0.0616101
0.0616119
0.0616102
0.0616044
0.0616032
0.0615803
0.0616041
0.0672596
0.0658787
0.0658654
0.0672226
0.0672023
0.0672346
0.0658796
0.0659025
0.0659226
0.0658912
0.0672395
0.0672316
0.0671899
0.065903
0.0658851
0.0658939
0.0659353
0.065879
0.0644271
0.064435
0.0630562
0.0630487
0.0644203
0.06443
0.0644001
0.0630505
0.0630628
0.0630537
0.0630834
0.0643816
0.0644017
0.0644138
0.0630595
0.0631021
0.0630819
0.0630704
0.0644258
0.0630579
0.064403
0.0644263
0.0644185
0.0630528
0.0630805
0.0630573
0.0630642
0.0644108
0.0644191
0.0643693
0.0630822
0.0630731
0.0630638
0.0631143
0.0644384
0.0630582
0.0630447
0.0644018
0.0643815
0.0644138
0.0630589
0.0630817
0.0631019
0.0630703
0.0644187
0.0644108
0.064369
0.0630822
0.0630643
0.0630731
0.0631145
0.0630582
0.0616064
0.0616142
0.061605
0.0616173
0.0616173
0.0616219
0.0616091
0.0615996
0.0615791
0.0615817
0.0616062
0.0616144
0.0615992
0.0616093
0.0615796
0.0616051
0.0615822
0.0616054
0.0615979
0.0616177
0.061581
0.0615607
0.0615929
0.0615978
0.06159
0.0615482
0.15752
0.157518
0.157513
0.15752
0.156829
0.156828
0.157511
0.157518
0.156828
0.156829
0.157488
0.157513
0.157511
0.157488
0.157512
0.154699
0.154697
0.154691
0.154699
0.154008
0.154008
0.15469
0.154697
0.154008
0.154008
0.154667
0.154691
0.15469
0.154667
0.154691
0.151878
0.151876
0.151871
0.151878
0.151187
0.151187
0.151869
0.151876
0.151187
0.151187
0.151846
0.151871
0.151869
0.151846
0.15187
0.149058
0.149056
0.14905
0.149058
0.148366
0.148366
0.149048
0.149056
0.148366
0.148366
0.149026
0.14905
0.149049
0.149026
0.149049
0.157514
0.157522
0.156143
0.156136
0.157513
0.156145
0.157525
0.157525
0.15753
0.156132
0.156132
0.156127
0.157518
0.157508
0.157487
0.156137
0.156141
0.15615
0.15617
0.157514
0.157489
0.157506
0.156139
0.156145
0.156167
0.156151
0.157526
0.156145
0.156132
0.157514
0.157522
0.156143
0.156136
0.157508
0.157518
0.157487
0.156137
0.15615
0.156141
0.15617
0.157468
0.157489
0.157501
0.156146
0.156189
0.156169
0.156157
0.157513
0.156145
0.157489
0.157514
0.157506
0.156139
0.156167
0.156145
0.156151
0.157498
0.157506
0.157456
0.156169
0.15616
0.156151
0.156201
0.157526
0.156145
0.156132
0.157489
0.157468
0.157501
0.156146
0.156169
0.156189
0.156157
0.157506
0.157498
0.157456
0.156169
0.156151
0.15616
0.156201
0.156145
0.154693
0.154701
0.153322
0.153315
0.154692
0.153324
0.154704
0.154704
0.154709
0.153311
0.153311
0.153307
0.154696
0.154686
0.154666
0.153317
0.15332
0.153329
0.153349
0.154692
0.154669
0.154685
0.153319
0.153323
0.153347
0.15333
0.154705
0.153324
0.153311
0.154693
0.154701
0.153322
0.153315
0.154686
0.154696
0.154666
0.153317
0.153329
0.15332
0.153349
0.154648
0.154668
0.15468
0.153325
0.153368
0.153348
0.153336
0.154692
0.153324
0.154669
0.154692
0.154685
0.153319
0.153347
0.153323
0.15333
0.154677
0.154685
0.154635
0.153348
0.153339
0.15333
0.15338
0.154705
0.153324
0.153311
0.154668
0.154648
0.15468
0.153325
0.153348
0.153368
0.153336
0.154685
0.154677
0.154635
0.153348
0.15333
0.153339
0.153381
0.153324
0.151872
0.15188
0.150502
0.150494
0.151871
0.150503
0.151883
0.151883
0.151888
0.15049
0.15049
0.150486
0.151875
0.151866
0.151846
0.150496
0.150499
0.150508
0.150529
0.151871
0.151848
0.151864
0.150498
0.150502
0.150526
0.15051
0.151884
0.150504
0.15049
0.151872
0.15188
0.150502
0.150494
0.151866
0.151875
0.151846
0.150496
0.150508
0.150499
0.150528
0.151827
0.151847
0.151859
0.150504
0.150547
0.150527
0.150516
0.151871
0.150503
0.151848
0.151871
0.151864
0.150498
0.150526
0.150503
0.15051
0.151856
0.151864
0.151815
0.150527
0.150518
0.150509
0.15056
0.151884
0.150504
0.15049
0.151847
0.151827
0.151859
0.150504
0.150527
0.150547
0.150516
0.151864
0.151856
0.151814
0.150527
0.15051
0.150518
0.15056
0.150503
0.149052
0.14906
0.147681
0.147673
0.14905
0.147682
0.149063
0.149063
0.149067
0.14767
0.14767
0.147665
0.149054
0.149045
0.149025
0.147675
0.147678
0.147687
0.147708
0.14905
0.149028
0.149043
0.147678
0.147681
0.147705
0.147689
0.149063
0.147682
0.147669
0.149052
0.149059
0.147681
0.147673
0.149045
0.149054
0.149025
0.147675
0.147687
0.147678
0.147708
0.149006
0.149026
0.149038
0.147684
0.147727
0.147706
0.147695
0.149051
0.147683
0.149028
0.14905
0.149043
0.147678
0.147705
0.147682
0.147689
0.149035
0.149044
0.148994
0.147707
0.147698
0.147688
0.147739
0.149063
0.147682
0.147669
0.149026
0.149006
0.149038
0.147684
0.147706
0.147727
0.147695
0.149043
0.149035
0.148994
0.147707
0.147689
0.147698
0.147739
0.147683
0.146231
0.14624
0.14486
0.144852
0.14623
0.144861
0.146237
0.146235
0.146229
0.146237
0.145545
0.145545
0.146228
0.146235
0.145545
0.145545
0.146205
0.14623
0.146227
0.146205
0.146229
0.143416
0.143414
0.143408
0.143416
0.142724
0.142725
0.143407
0.143414
0.142724
0.142725
0.143384
0.143408
0.143407
0.143384
0.143408
0.140595
0.140593
0.140587
0.140595
0.139904
0.139904
0.140586
0.140593
0.139904
0.139904
0.140563
0.140587
0.140586
0.140563
0.140587
0.137774
0.137772
0.137767
0.137774
0.137083
0.137083
0.137765
0.137772
0.137083
0.137083
0.137742
0.137767
0.137765
0.137742
0.137766
0.134262
0.134944
0.134262
0.134262
0.134922
0.134944
0.134922
0.134945
0.146242
0.146242
0.146247
0.144849
0.144849
0.144844
0.146235
0.146224
0.146204
0.144854
0.144857
0.144866
0.144887
0.14623
0.146207
0.146223
0.144856
0.144862
0.144884
0.144868
0.146242
0.144862
0.144849
0.146231
0.146239
0.14486
0.144853
0.146224
0.146234
0.146204
0.144854
0.144866
0.144858
0.144887
0.146185
0.146205
0.146217
0.144862
0.144905
0.144885
0.144874
0.146229
0.144861
0.146206
0.14623
0.146222
0.144856
0.144884
0.144861
0.144868
0.146214
0.146223
0.146173
0.144886
0.144877
0.144867
0.144918
0.146242
0.144862
0.144848
0.146205
0.146185
0.146217
0.144862
0.144885
0.144905
0.144874
0.146222
0.146214
0.146173
0.144886
0.144868
0.144877
0.144918
0.144862
0.14341
0.143418
0.142039
0.142031
0.143409
0.142041
0.143421
0.143421
0.143426
0.142028
0.142028
0.142023
0.143412
0.143403
0.143383
0.142033
0.142036
0.142045
0.142066
0.14341
0.143386
0.143401
0.142036
0.14204
0.142063
0.142047
0.143421
0.142041
0.142027
0.14341
0.143418
0.142039
0.142032
0.143403
0.143413
0.143383
0.142033
0.142045
0.142037
0.142066
0.143364
0.143385
0.143397
0.142042
0.142085
0.142065
0.142053
0.143409
0.142041
0.143386
0.143409
0.143401
0.142036
0.142063
0.14204
0.142047
0.143394
0.143402
0.143352
0.142065
0.142056
0.142047
0.142097
0.143421
0.142041
0.142027
0.143385
0.143364
0.143397
0.142042
0.142065
0.142085
0.142053
0.143401
0.143394
0.143352
0.142065
0.142047
0.142056
0.142097
0.142041
0.140589
0.140597
0.139218
0.139211
0.140588
0.13922
0.1406
0.1406
0.140605
0.139207
0.139207
0.139202
0.140592
0.140582
0.140562
0.139213
0.139215
0.139225
0.139245
0.140588
0.140565
0.140581
0.139215
0.139219
0.139243
0.139226
0.1406
0.13922
0.139207
0.140589
0.140597
0.139218
0.139211
0.140582
0.140592
0.140562
0.139213
0.139225
0.139216
0.139245
0.140543
0.140564
0.140576
0.139221
0.139264
0.139244
0.139232
0.140588
0.13922
0.140565
0.140588
0.140581
0.139215
0.139242
0.139219
0.139226
0.140573
0.140581
0.140531
0.139244
0.139235
0.139226
0.139276
0.1406
0.13922
0.139207
0.140564
0.140543
0.140576
0.139221
0.139244
0.139264
0.139232
0.140581
0.140573
0.140531
0.139244
0.139226
0.139235
0.139277
0.13922
0.137768
0.137776
0.136397
0.13639
0.137767
0.136399