/*--------------------------------*- C++ -*----------------------------------*\
  =========                 |
  \\      /  F ield         | OpenFOAM: The Open Source CFD Toolbox
   \\    /   O peration     | Website:  https://openfoam.org
    \\  /    A nd           | Version:  9
     \\/     M anipulation  |
\*---------------------------------------------------------------------------*/
FoamFile
{
    format      ascii;
    class       volScalarField;
    location    "0/FluidRegion";
    object      Cx;
}
// * * * * * * * * * * * * * * * * * * * * * * * * * * * * * * * * * * * * * //

dimensions      [0 1 0 0 0 0 0];

internalField   nonuniform List<scalar> 
132485
(
-0.000479135281924
-0.00102923409206
-0.001384590751
0.00047906345593
-3.22717400459e-10
-0.000529140923584
-0.00108481902561
0.00102921672705
0.000529287059348
2.7528582795e-07
-0.000517384855545
0.00138458877014
0.00108490224776
0.000518515326781
-2.54259120596e-07
-0.000479135282634
-0.00102923404396
-0.00138459075555
0.000479063456674
-3.22932598817e-10
-0.00052914093511
-0.00108481904285
0.00102921668061
0.0005292870688
2.75285139032e-07
-0.00051738485958
0.00138458877185
0.00108490222926
0.000518515332429
-2.54281111916e-07
-0.000479135281398
-0.00102923405928
-0.00138459075478
0.000479063450186
-3.2181141243e-10
-0.000529140922176
-0.00108481900713
0.00102921669645
0.000529287069475
2.75291144466e-07
-0.000517384851845
0.00138458876895
0.00108490222707
0.000518515332076
-2.54287889865e-07
-0.000479135271413
-0.00102923410099
-0.00138459075225
0.000479063454891
-3.25705665612e-10
-0.000529140927716
-0.00108481906503
0.00102921669217
0.000529287041314
2.75284205535e-07
-0.00051738485159
0.00138458877703
0.00108490218096
0.000518515329303
-2.54272119243e-07
-0.000479135256167
-0.00102923403218
-0.00138459074209
0.000479063433949
-3.21901777489e-10
-0.000529140788087
-0.00108481900943
0.00102921664536
0.000529286919197
2.75285650145e-07
-0.000517384845475
0.00138458876087
0.00108490219706
0.000518515317102
-2.5428810913e-07
-0.00047913508716
-0.00102923350578
-0.00138459068795
0.00047906326074
-3.21920188282e-10
-0.000529139686857
-0.00108481873643
0.00102921614915
0.000529285818796
2.75278111481e-07
-0.000517384730801
0.00138458871317
0.00108490193286
0.000518515195235
-2.54280656711e-07
-0.000479133990519
-0.00102922762952
-0.00138459256311
0.000479062166318
-3.3193956021e-10
-0.000529129427389
-0.00108481574121
0.00102921021056
0.000529275503205
2.75240214733e-07
-0.000517384048065
0.00138459058568
0.00108489890058
0.000518514477043
-2.54301382149e-07
-0.000693347097427
-0.000908991998861
-0.00113079659783
0.00113076815834
-0.000693347115328
-0.000908991978332
-0.000693347110286
-0.000908991979642
-0.00113079660397
-0.00113079660435
-0.000241471202876
0.000241370817508
-5.25328749454e-08
-0.000241471202881
0.000241370817547
-5.25329340184e-08
-0.000728297346161
-0.000244797579754
-0.000501211187585
-0.000479135280825
-0.000728297345531
-0.000244797579626
-0.000501211186833
-0.00125252545151
-0.000769207239299
-0.00103310116518
-0.00102923409277
-0.00125252545204
-0.000769207238739
-0.0010331011699
-0.00128475871712
-0.00138459075388
-0.00128475872809
0.000693283634513
0.000908945713773
0.00069328362086
0.000908945722516
0.000244734289854
0.000728258306611
0.000501214973853
0.000479063452145
0.000244734289078
0.000728258304831
0.000501214972322
-0.00120540983919
-0.000785619907248
-0.000981851688331
-0.00108481902553
-0.00120540983886
-0.000785619905696
-0.000981851680205
0.00113076819153
0.0011307681674
0.000769206761985
0.00125251672921
0.00103311470387
0.00102921669253
0.000769206755961
0.00125251675493
0.00103311471512
-0.000737451538211
-0.000253370215322
-0.000487482656897
-0.000517384861138
-0.000737451554192
-0.000253370221001
-0.000487482641193
0.00128478466331
0.00138458877363
0.00128478465193
0.000785821681914
0.00120547060968
0.0009819441695
0.00108490215783
0.000785821669663
0.00120547055594
0.000981944167053
0.000253470397673
0.00073761913596
0.000487586813219
0.000518515325897
0.000253470401036
0.000737619138134
0.000487586861148
-2.54303897131e-07
-0.000693347115103
-0.000908991993413
-0.000693347115167
-0.000908991977139
-0.00113079656542
-0.00113079660323
-0.000241471202799
0.000241370817609
-5.25329201951e-08
-0.000241471202691
0.000241370817636
-5.25332251365e-08
-0.000728297346013
-0.000244797579787
-0.000501211184998
-0.000479135282685
-0.000728297345745
-0.000244797580009
-0.000501211185995
-0.00125252545153
-0.000769207228158
-0.00103310117231
-0.00102923409191
-0.0012525254544
-0.000769207235355
-0.00103310116193
-0.00128475873312
-0.00138459074793
-0.0012847587119
0.000693283638757
0.000908945715488
0.000693283601698
0.000908945727175
0.000244734289402
0.000728258302426
0.000501214971032
0.000479063443854
0.000244734286516
0.000728258305379
0.000501214971793
-0.00120540984941
-0.00078561990854
-0.000981851681649
-0.00108481907036
-0.0012054098655
-0.000785619913377
-0.000981851685356
0.00113076815937
0.00113076817507
0.000769206752288
0.00125251674419
0.00103311471234
0.00102921670089
0.000769206756254
0.00125251675051
0.00103311471204
-0.000737451549592
-0.000253370216569
-0.000487482641533
-0.000517384858537
-0.000737451542653
-0.00025337022478
-0.000487482635359
0.00128478466088
0.0013845887729
0.00128478465777
0.000785821678232
0.00120547059837
0.000981944161284
0.00108490221894
0.000785821678501
0.00120547059291
0.000981944161361
0.000253470394447
0.000737619156566
0.000487586824465
0.000518515335477
0.000253470394705
0.000737619165154
0.000487586856039
-2.54326691811e-07
-0.000693347109718
-0.00090899200797
-0.000693347115194
-0.000908991977399
-0.00113079657039
-0.00113079659044
-0.000241471202592
0.000241370817608
-5.25329934462e-08
-0.000241471202446
0.000241370817491
-5.25327733072e-08
-0.000728297353038
-0.00024479757927
-0.000501211185715
-0.000479135280551
-0.000728297342167
-0.000244797577321
-0.000501211181046
-0.00125252545195
-0.000769207229654
-0.00103310116876
-0.00102923406984
-0.00125252545058
-0.000769207228299
-0.00103310116237
-0.00128475872583
-0.00138459075068
-0.00128475871805
0.000693283619983
0.00090894573634
0.000693283620022
0.000908945722926
0.000244734287626
0.000728258310647
0.000501214972024
0.000479063450615
0.000244734286855
0.000728258303986
0.00050121496776
-0.00120540982804
-0.000785619905124
-0.000981851689588
-0.00108481904375
-0.00120540985054
-0.000785619911564
-0.000981851696482
0.00113076816502
0.00113076817073
0.000769206753536
0.00125251672855
0.00103311470109
0.00102921669605
0.000769206751612
0.0012525167421
0.00103311470764
-0.000737451534796
-0.00025337021434
-0.000487482635095
-0.000517384850582
-0.000737451527553
-0.000253370219737
-0.000487482663986
0.00128478465434
0.00138458877122
0.00128478465797
0.00078582167877
0.00120547059774
0.000981944160643
0.00108490222047
0.00078582167883
0.00120547059426
0.000981944170746
0.000253470397088
0.000737619151249
0.000487586839383
0.000518515327898
0.000253470394295
0.000737619146688
0.000487586818518
-2.54273581612e-07
-0.000693347090357
-0.000908991999423
-0.000693347114001
-0.000908991991157
-0.00113079660849
-0.0011307965786
-0.000241471202013
0.000241370817106
-5.25324682673e-08
-0.000241471200708
0.000241370815907
-5.2532734991e-08
-0.000728297347163
-0.000244797571975
-0.000501211173761
-0.000479135273987
-0.000728297329616
-0.000244797561421
-0.000501211141312
-0.00125252544701
-0.000769207226284
-0.00103310115591
-0.00102923404942
-0.00125252544127
-0.000769207185508
-0.00103310113053
-0.00128475872642
-0.00138459074528
-0.00128475869995
0.000693283638518
0.00090894570837
0.000693283612387
0.000908945732856
0.000244734283967
0.000728258295639
0.000501214956329
0.000479063442043
0.000244734270373
0.000728258286466
0.000501214924996
-0.001205409865
-0.000785619912387
-0.000981851691899
-0.00108481903839
-0.00120540985219
-0.000785619900414
-0.000981851674177
0.00113076817252
0.0011307681436
0.000769206741722
0.00125251676075
0.00103311471404
0.00102921664941
0.000769206699721
0.0012525167197
0.00103311467342
-0.000737451531174
-0.000253370214491
-0.000487482649722
-0.00051738485936
-0.000737451564086
-0.00025337021467
-0.000487482641247
0.00128478466513
0.00138458876514
0.00128478464365
0.000785821669658
0.00120547057165
0.000981944160879
0.00108490221078
0.000785821667974
0.00120547059252
0.000981944163767
0.000253470394281
0.000737619158394
0.000487586817573
0.000518515320682
0.00025347040006
0.000737619131019
0.000487586845723
-2.54280403727e-07
-0.000693347103981
-0.000908991968453
-0.000693347099337
-0.000908991955057
-0.00113079659422
-0.00113079655891
-0.000241471197024
0.000241370812397
-5.25325006242e-08
-0.000241471186997
0.000241370802495
-5.25327847032e-08
-0.000728297283366
-0.00024479752664
-0.00050121104956
-0.000479135213315
-0.000728297165663
-0.000244797432407
-0.000501210795985
-0.0012525254215
-0.000769207090512
-0.00103310107348
-0.00102923389276
-0.00125252535501
-0.000769206801551
-0.00103310089408
-0.00128475869406
-0.00138459073342
-0.00128475866731
0.000693283633538
0.000908945715772
0.00069328359086
0.000908945695585
0.000244734237671
0.000728258248519
0.000501214836493
0.000479063377609
0.000244734140208
0.000728258123953
0.000501214581309
-0.00120540984553
-0.000785619880195
-0.000981851675905
-0.00108481892416
-0.00120540982822
-0.000785619823348
-0.000981851674384
0.00113076816045
0.00113076813751
0.000769206609698
0.00125251671953
0.00103311461657
0.00102921650822
0.00076920632131
0.00125251665652
0.00103311443515
-0.000737451547489
-0.000253370220465
-0.000487482661719
-0.000517384806017
-0.000737451522538
-0.000253370199052
-0.000487482599183
0.00128478462575
0.0013845887492
0.00128478458242
0.000785821650277
0.0012054705951
0.000981944155987
0.00108490207201
0.000785821586406
0.00120547055443
0.000981944144009
0.000253470394644
0.000737619158633
0.000487586838395
0.000518515283073
0.000253470378227
0.000737619148227
0.000487586834522
-2.54318757681e-07
-0.000693347058865
-0.000908991894594
-0.000693346978216
-0.000908991727542
-0.00113079650471
-0.00113079636212
-0.000241471160209
0.000241370775725
-5.25326595591e-08
-0.00024147109155
0.000241370706825
-5.25330149423e-08
-0.000728296819718
-0.000244797176027
-0.00050121005906
-0.000479134767842
-0.000728295847899
-0.000244796530928
-0.000501208096189
-0.00125252514162
-0.00076920588441
-0.00103310028607
-0.00102923225038
-0.00125252436039
-0.000769203112027
-0.00103309847235
-0.00128475848093
-0.00138459076059
-0.00128475812512
0.00069328357904
0.000908945622036
0.000693283491505
0.000908945459574
0.000244733885134
0.000728257777992
0.000501213844558
0.000479062939698
0.000244733237368
0.000728256802518
0.000501211875656
-0.00120540982161
-0.000785619659995
-0.000981851637462
-0.00108481805352
-0.0012054097595
-0.000785619196059
-0.000981851563947
0.00113076810252
0.00113076794563
0.00076920541174
0.00125251641862
0.00103311383301
0.00102921487297
0.000769202628921
0.00125251566023
0.00103311201485
-0.000737451531316
-0.000253370185696
-0.000487482636105
-0.000517384520388
-0.000737451464435
-0.000253370141042
-0.000487482630505
0.00128478444635
0.00138458878098
0.00128478405446
0.000785821429052
0.00120547057758
0.00098194411603
0.00108490119379
0.000785820956051
0.00120547048305
0.000981944036493
0.000253470369062
0.000737619125385
0.000487586833775
0.000518514977818
0.000253470314172
0.000737619084389
0.000487586793949
-2.5427432007e-07
-0.000693346787671
-0.00090899131992
-0.000693346420914
-0.000908990543696
-0.00113079600073
-0.00113079532357
-0.00024147092484
0.000241370539482
-5.25338284227e-08
-0.000241470543646
0.000241370156977
-5.25357876695e-08
-0.000728293184489
-0.000244795004163
-0.000501202844416
-0.000479132304816
-0.000728287052937
-0.000244791914428
-0.000501191871076
-0.00125252111505
-0.00076919351738
-0.00103309328336
-0.00102920787122
-0.00125250431536
-0.000769157051601
-0.00103308428508
-0.00128475760804
-0.00138461330012
-0.00128476196996
0.000693283322268
0.000908945030972
0.000693282921113
0.000908944280683
0.000244731705731
0.000728254125779
0.000501206611169
0.000479060466831
0.000244728604248
0.000728248000164
0.000501195626101
-0.00120540958229
-0.000785617936736
-0.000981851387652
-0.00108480718546
-0.00120540925527
-0.000785615265358
-0.000981851095762
0.00113076756409
0.00113076691734
0.00076919301044
0.00125251240722
0.0010331068101
0.00102919049151
0.000769156511252
0.00125249561378
0.00103309779139
-0.000737451387367
-0.000253370044356
-0.000487482565349
-0.000517383316835
-0.000737451255004
-0.000253369914213
-0.000487482540941
0.00128478352774
0.00138461136934
0.0012847878457
0.000785819696136
0.00120547032262
0.000981943866559
0.0010848902871
0.000785817011923
0.001205469987
0.000981943565654
0.000253470214059
0.000737618980576
0.000487586777357
0.000518513717473
0.000253470082205
0.000737618854336
0.000487586726003
-2.54267475974e-07
-0.000479128730156
-0.00102920815901
-0.00138461535673
0.000479056888156
-3.27384174167e-10
-0.000529122832025
-0.00108480522208
0.00102919076482
0.000529268889373
2.75217069137e-07
-0.000517382935072
0.00138461343213
0.0010848883105
0.000518513316915
-2.54294702536e-07
-0.000693345751395
-0.000908990142981
-0.000693343893564
-0.000908989885526
-0.0011307955954
-0.00113079775426
-0.000241469614517
0.000241369224655
-5.25397980244e-08
-0.000241466752604
0.000241366354
-5.25502791387e-08
-0.000728283764347
-0.000244785991202
-0.000501188712713
-0.000479113459291
-0.000728276499984
-0.000244759472911
-0.000501198382521
-0.00125250255424
-0.000769153652938
-0.00103308151073
-0.00102923417575
-0.00125250654636
-0.000769176062097
-0.00103308603098
-0.0012847619099
-0.00138461587548
-0.00128476255686
0.000693282271722
0.000908943881407
0.000693280386956
0.000908943611016
0.000244722660924
0.000728244706095
0.000501192463737
0.000479041564327
0.000244696060781
0.000728237407347
0.000501202156953
-0.00120540909602
-0.000785614214163
-0.000981850947991
-0.00108480551062
-0.00120540911652
-0.000785614305077
-0.000981850969664
0.00113076717036
0.00113076933609
0.000769153111371
0.00125249384413
0.00103309501198
0.0010292168454
0.000769175581229
0.0012524978577
0.00103309954916
-0.000737451192245
-0.000253369838039
-0.00048748248878
-0.000517382944834
-0.000737451173962
-0.000253369836296
-0.000487482501763
0.00128478778599
0.00138461395092
0.00128478843056
0.000785815958566
0.00120546982537
0.000981943423567
0.00108488863362
0.000785816055562
0.00120546986583
0.00098194344011
0.000253469986996
0.000737618793038
0.000487586670316
0.000518513333239
0.000253469991659
0.000737618782969
0.00048758665765
-2.54265160609e-07
-0.0031848869345
-0.00238678196221
-0.00234919593326
-0.00161188358277
-0.00120580626484
-0.00318466296522
-0.00238602021328
-0.00342665832105
-0.00234812972919
-0.00161018491378
-0.00120497680951
-0.00280134422878
-0.00298180370229
-0.00256841543675
-0.00318480592595
-0.00280096314129
-0.00298173015366
-0.00256772274772
-0.00213242053644
-0.00173335692613
-0.00238615240856
-0.00213187305462
-0.00173309353832
-0.00141623730256
-0.00141612140868
-0.00103550291925
-0.00120515225206
-0.001034232063
-0.00210011986002
-0.00173532187022
-0.00209985024761
-0.00173316416836
-0.00140706361881
-0.00113663330429
-0.00140417880597
-0.00113407708999
-0.000961908828195
-0.000960618990626
-0.00349676894556
-0.00362845327718
-0.00339287217501
-0.00349675673607
-0.00362841048439
-0.00339288107197
-0.00280074597846
-0.00298165407461
-0.00256745174384
-0.00318460014247
-0.0028006602768
-0.00298161859912
-0.00256737856244
-0.00213176420291
-0.00173306519057
-0.00238598863684
-0.00213173525797
-0.00173306641494
-0.0014160987408
-0.00141609824123
-0.00310321193281
-0.00312457474403
-0.00278157945123
-0.00342653510862
-0.00310322191804
-0.00312442413293
-0.00278159667658
-0.0010339350927
-0.00120492624755
-0.00103385711949
-0.00245550874056
-0.00245563385558
-0.00210011193628
-0.00173295561944
-0.00210031695094
-0.00173302256094
-0.00140366452456
-0.00113358689394
-0.00140359096154
-0.00113347373747
-0.000960398493514
-0.000960344423456
-0.00342621751561
-0.00349673341813
-0.00362815103183
-0.00339218990176
-0.00349680490511
-0.0036284800472
-0.00339278145746
-0.00310170577711
-0.00312440597278
-0.00278042575337
-0.00342676670592
-0.00310297392413
-0.00312474616624
-0.00278140124884
-0.00245393019074
-0.00245519700183
-0.00280062770604
-0.00349675334066
-0.00161012063953
-0.00234825359758
-0.00310319915412
-0.00280062770612
-0.00349675335612
-0.00161012063843
-0.00234825359824
-0.00310319915609
-0.00280062770588
-0.00349675333475
-0.00161012063914
-0.00234825359396
-0.00310319915171
-0.00280062770577
-0.00349675332038
-0.00161012063825
-0.00234825359355
-0.00310319914177
-0.00280062770564
-0.00349675331022
-0.00161012063939
-0.00234825359561
-0.00310319915501
-0.002800627706
-0.00349675334342
-0.0016101206404
-0.00234825359631
-0.00310319915495
-0.00280062770554
-0.00349675330549
-0.00234825359642
-0.00310319915373
-0.00141611758543
-0.00141611756422
-0.00238598712387
-0.00173308651583
-0.00213173758969
-0.0023859871238
-0.00173308652859
-0.00213173759032
-0.00318457339332
-0.00256734491013
-0.0029815971937
-0.00280062770583
-0.00318457339187
-0.00256734490937
-0.00298159718748
-0.00339288184748
-0.00362838261535
-0.0034967533207
-0.00339288181669
-0.00362838260667
-0.00120491289243
-0.00103382679322
-0.00120491288838
-0.00103382679274
-0.00342645673923
-0.00278159639546
-0.00312433484716
-0.00310319914971
-0.00342645673937
-0.00278159639508
-0.00312433484731
-0.000960319207631
-0.000960319207603
-0.00113341744938
-0.0014035559773
-0.0011334174494
-0.00140355597737
-0.00173307098482
-0.00210043578212
-0.00173307098482
-0.00210043578212
-0.00245570354643
-0.00245570354644
-0.00141611758571
-0.00141611758611
-0.0023859871238
-0.00173308651534
-0.0021317375895
-0.00238598712374
-0.00173308651456
-0.00213173758894
-0.00318457339438
-0.00256734491044
-0.00298159719755
-0.00280062770576
-0.00318457339187
-0.00256734490885
-0.00298159718715
-0.00339288187144
-0.00362838262303
-0.00349675332069
-0.0033928818161
-0.00362838260583
-0.00120491289278
-0.00103382679333
-0.00120491289344
-0.00103382679349
-0.00342645675036
-0.00278159638026
-0.00312433479425
-0.00310319914908
-0.00342645673009
-0.00278159640736
-0.00312433487978
-0.000960319207642
-0.000960319207655
-0.00113341744938
-0.00140355597731
-0.00113341744939
-0.00140355597738
-0.00173307098483
-0.00210043578202
-0.00173307098486
-0.00210043578237
-0.00245570354646
-0.0024557035464
-0.00141611758639
-0.00141611756324
-0.00238598712377
-0.00173308651499
-0.00213173758928
-0.00238598712379
-0.00173308652921
-0.00213173759028
-0.00318457339284
-0.00256734490916
-0.00298159719093
-0.00280062770601
-0.00318457339346
-0.00256734490997
-0.00298159719334
-0.00339288183838
-0.00362838261287
-0.0034967533428
-0.0033928818521
-0.00362838261841
-0.00120491289291
-0.00103382679334
-0.00120491288824
-0.00103382679274
-0.00342645673793
-0.00278159639694
-0.00312433484805
-0.00310319915278
-0.00342645675278
-0.00278159637718
-0.00312433479294
-0.000960319207645
-0.000960319207604
-0.00113341744938
-0.0014035559773
-0.0011334174494
-0.00140355597733
-0.00173307098484
-0.00210043578216
-0.00173307098473
-0.00210043578176
-0.00245570354639
-0.00245570354642
-0.00141611758655
-0.0014161175868
-0.00238598712379
-0.00173308651515
-0.00213173758926
-0.00238598712381
-0.0017330865156
-0.00213173758965
-0.00318457339183
-0.00256734490844
-0.00298159718644
-0.00280062770595
-0.00318457339339
-0.00256734490967
-0.00298159719291
-0.0033928818172
-0.00362838260614
-0.00349675334388
-0.00339288185228
-0.00362838261771
-0.00120491289275
-0.00103382679325
-0.00120491289213
-0.00103382679308
-0.00342645671866
-0.0027815963927
-0.00312433484753
-0.00310319916076
-0.00342645676212
-0.00278159639098
-0.00312433482692
-0.000960319207637
-0.000960319207622
-0.00113341744938
-0.00140355597727
-0.00113341744938
-0.00140355597729
-0.00173307098474
-0.00210043578189
-0.00173307098474
-0.00210043578199
-0.00245570354638
-0.00245570354638
-0.00141611753744
-0.00141611761185
-0.00238598712378
-0.00173308654536
-0.00213173759142
-0.00238598712386
-0.00173308650034
-0.00213173758871
-0.00318457339098
-0.00256734490857
-0.00298159718335
-0.00280062770593
-0.00318457339336
-0.0025673449097
-0.00298159719343
-0.0033928818001
-0.00362838260226
-0.0034967533434
-0.00339288185181
-0.00362838261641
-0.00120491288289
-0.00103382679198
-0.00120491289708
-0.00103382679367
-0.00342645675859
-0.00278159639616
-0.00312433484811
-0.00310319915081
-0.00342645673673
-0.00278159638518
-0.00312433481168
-0.00096031920755
-0.000960319207655
-0.00113341744941
-0.00140355597727
-0.00113341744934
-0.00140355597726
-0.00173307098476
-0.00210043578205
-0.00173307098474
-0.00210043578196
-0.00245570354637
-0.00245570354639
-0.00141611756157
-0.00141611756101
-0.00238598712389
-0.00173308653054
-0.00213173759065
-0.00238598712389
-0.00173308653071
-0.00213173759035
-0.00318457339347
-0.0025673449104
-0.00298159719453
-0.0028006277058
-0.00318457339253
-0.00256734490915
-0.00298159718966
-0.00339288185184
-0.00362838261675
-0.00349675333353
-0.00339288183674
-0.00362838261236
-0.00120491288773
-0.00103382679261
-0.00120491288784
-0.00103382679268
-0.00342645673798
-0.0027815964013
-0.00312433486433
-0.00310319914801
-0.00342645673661
-0.00278159638427
-0.00312433481073
-0.000960319207585
-0.000960319207594
-0.00113341744937
-0.00140355597728
-0.00113341744936
-0.00140355597726
-0.00173307098478
-0.00210043578217
-0.00173307098474
-0.00210043578193
-0.00245570354639
-0.00245570354641
-0.00318457339056
-0.00256734490743
-0.00298159718165
-0.00280062770615
-0.00318457339446
-0.00256734491073
-0.00298159719832
-0.00339288179307
-0.00362838260072
-0.0034967533582
-0.00339288187454
-0.00362838262303
-0.00342645675958
-0.00278159639567
-0.00312433484818
-0.00310319915981
-0.00342645674731
-0.00278159639012
-0.00312433482782
-0.00173307098472
-0.002100435782
-0.00173307098463
-0.00210043578183
-0.00245570354636
-0.00245570354632
-0.00280062770517
-0.00349675333109
-0.0016101206371
-0.00234825360242
-0.00310319916539
-0.00280062770605
-0.0034967533334
-0.00161012063777
-0.00234825359242
-0.00310319915395
-0.0028006277059
-0.00349675333383
-0.00161012063828
-0.00234825359438
-0.00310319915211
-0.0028006277059
-0.00349675333388
-0.00161012063963
-0.00234825359579
-0.00310319915188
-0.0028006277059
-0.00349675333385
-0.0016101206394
-0.00234825359824
-0.0031031991514
-0.00280062770588
-0.00349675333392
-0.00161012063859
-0.00234825359261
-0.00310319915197
-0.00280062770586
-0.0034967533339
-0.00161012063868
-0.00234825359509
-0.00310319915221
-0.00280062770591
-0.00349675333389
-0.00161012063927
-0.00234825359523
-0.00310319915207
-0.00280062770594
-0.00349675333805
-0.00161012063928
-0.00234825359492
-0.0031031991526
-0.00280062770591
-0.00349675333771
-0.00161012063957
-0.00234825359781
-0.00310319915226
-0.00280062770574
-0.00349675332225
-0.00161012063968
-0.00234825359292
-0.00310319915025
-0.00280062770571
-0.00349675332236
-0.00161012063894
-0.00234825359401
-0.00310319914946
-0.00280062770607
-0.00349675335451
-0.00161012063875
-0.00234825359861
-0.00310319915573
-0.00280062770577
-0.0034967533214
-0.00161012063945
-0.00234825359507
-0.00310319914946
-0.00141611758268
-0.0014161175853
-0.00238598712864
-0.00173308653669
-0.00213173759636
-0.00238598712614
-0.00173308652436
-0.00213173759271
-0.00318457338941
-0.00256734491286
-0.00298159719317
-0.00280062770608
-0.00318457339159
-0.00256734491143
-0.00298159719218
-0.00339288184551
-0.00362838261817
-0.00349675333264
-0.00339288184047
-0.00362838261541
-0.00120491289378
-0.00103382679106
-0.00120491289322
-0.0010338267928
-0.00342645675423
-0.0027815964
-0.00312433484312
-0.00310319915755
-0.00342645674827
-0.00278159639308
-0.00312433483879
-0.000960319206412
-0.00096031920756
-0.00113341744178
-0.00140355596387
-0.00113341744659
-0.00140355597006
-0.00173307096924
-0.00210043577242
-0.00173307097392
-0.00210043577216
-0.00245570354523
-0.00245570354228
-0.00141611757359
-0.00141611758138
-0.00238598712471
-0.00173308652603
-0.00213173759126
-0.00238598712412
-0.00173308651897
-0.00213173758988
-0.00318457339235
-0.00256734490986
-0.0029815971913
-0.00280062770595
-0.00318457339263
-0.00256734490958
-0.00298159719094
-0.00339288183831
-0.00362838261385
-0.00349675333373
-0.0033928818376
-0.00362838261319
-0.00120491289064
-0.00103382679303
-0.00120491289223
-0.00103382679335
-0.00342645674468
-0.00278159639139
-0.00312433483594
-0.00310319915259
-0.00342645674315
-0.00278159639105
-0.00312433483455
-0.000960319207757
-0.000960319207745
-0.00113341744859
-0.00140355597433
-0.00113341744924
-0.00140355597637
-0.00173307097973
-0.00210043577686
-0.00173307098289
-0.00210043577992
-0.00245570354389
-0.00245570354531
-0.00141611758796
-0.00141611758333
-0.00238598712391
-0.00173308651398
-0.00213173758916
-0.00238598712384
-0.00173308651685
-0.0021317375894
-0.00318457339271
-0.0025673449092
-0.00298159719075
-0.00280062770588
-0.00318457339274
-0.00256734490937
-0.00298159719076
-0.00339288183741
-0.003628382613
-0.00349675333389
-0.00339288183734
-0.00362838261289
-0.00120491289374
-0.00103382679355
-0.00120491289246
-0.00103382679333
-0.0034264567431
-0.00278159639035
-0.00312433483178
-0.00310319915199
-0.00342645674247
-0.00278159639101
-0.00312433483342
-0.000960319207708
-0.000960319207664
-0.00113341744939
-0.00140355597704
-0.00113341744941
-0.00140355597729
-0.0017330709842
-0.0021004357813
-0.00173307098464
-0.00210043578184
-0.00245570354603
-0.00245570354629
-0.00141611757114
-0.00141611757368
-0.00238598712381
-0.00173308652473
-0.00213173759017
-0.0023859871238
-0.0017330865235
-0.00213173759024
-0.00318457339275
-0.00256734490954
-0.00298159719079
-0.0028006277059
-0.00318457339276
-0.00256734490965
-0.00298159719082
-0.00339288183727
-0.00362838261282
-0.00349675333388
-0.00339288183714
-0.00362838261274
-0.00120491288952
-0.00103382679284
-0.00120491288959
-0.00103382679277
-0.00342645674219
-0.00278159639132
-0.00312433483368
-0.00310319915171
-0.00342645674184
-0.00278159639173
-0.00312433483396
-0.000960319207611
-0.000960319207595
-0.00113341744941
-0.00140355597731
-0.0011334174494
-0.00140355597733
-0.00173307098478
-0.00210043578201
-0.00173307098482
-0.00210043578209
-0.0024557035464
-0.00245570354642
-0.00141611757046
-0.00141611758208
-0.00238598712381
-0.00173308652525
-0.00213173759029
-0.00238598712383
-0.00173308651816
-0.00213173758973
-0.00318457339275
-0.00256734490969
-0.00298159719084
-0.0028006277059
-0.00318457339275
-0.00256734490947
-0.00298159719085
-0.00339288183687
-0.00362838261251
-0.00349675333385
-0.00339288183673
-0.00362838261198
-0.00120491288922
-0.00103382679276
-0.00120491289159
-0.00103382679308
-0.00342645674044
-0.00278159639342
-0.00312433483431
-0.00310319915184
-0.00342645673313
-0.00278159640352
-0.00312433486935
-0.000960319207597
-0.00096031920762
-0.0011334174494
-0.00140355597733
-0.00113341744939
-0.00140355597732
-0.00173307098483
-0.00210043578217
-0.00173307098485
-0.00210043578227
-0.00245570354642
-0.00245570354641
-0.00141611756986
-0.0014161175984
-0.00238598712383
-0.0017330865249
-0.00213173758982
-0.00238598712384
-0.00173308650731
-0.00213173758849
-0.00318457339275
-0.00256734490941
-0.00298159719069
-0.00280062770584
-0.00318457339275
-0.002567344909
-0.00298159719064
-0.00339288183778
-0.00362838261352
-0.00349675333392
-0.0033928818378
-0.00362838261332
-0.00120491289
-0.00103382679304
-0.00120491289587
-0.00103382679381
-0.00342645674952
-0.0027815963815
-0.00312433480464
-0.00310319915232
-0.00342645674617
-0.0027815963862
-0.00312433482255
-0.000960319207629
-0.000960319207682
-0.00113341744939
-0.00140355597734
-0.00113341744937
-0.00140355597732
-0.00173307098478
-0.00210043578188
-0.00173307098476
-0.0021004357819
-0.00245570354645
-0.00245570354645
-0.00141611758277
-0.00141611758303
-0.00238598712382
-0.0017330865166
-0.00213173758905
-0.00238598712382
-0.00173308651709
-0.0021317375894
-0.00318457339275
-0.00256734490913
-0.00298159719072
-0.00280062770589
-0.00318457339275
-0.00256734490937
-0.00298159719074
-0.00339288183736
-0.00362838261269
-0.00349675333391
-0.00339288183742
-0.00362838261299
-0.00120491289305
-0.0010338267935
-0.00120491289227
-0.00103382679328
-0.00342645673977
-0.00278159639472
-0.00312433484595
-0.00310319915185
-0.00342645674427
-0.00278159638849
-0.00312433482329
-0.000960319207666
-0.000960319207642
-0.00113341744937
-0.00140355597732
-0.00113341744939
-0.00140355597734
-0.00173307098479
-0.00210043578205
-0.0017330709848
-0.00210043578201
-0.00245570354643
-0.00245570354643
-0.00141611756882
-0.00141611758326
-0.00238598712385
-0.00173308652592
-0.00213173759012
-0.00238598712387
-0.00173308651707
-0.00213173758952
-0.00318457339277
-0.00256734490947
-0.00298159719081
-0.00280062770592
-0.00318457339276
-0.00256734490945
-0.00298159719074
-0.00339288183726
-0.00362838261262
-0.00349675333338
-0.0033928818368
-0.00362838261286
-0.00120491288934
-0.00103382679287
-0.00120491289219
-0.00103382679321
-0.0034264567394
-0.00278159639516
-0.0031243348464
-0.00310319915199
-0.00342645674467
-0.00278159638804
-0.00312433482484
-0.000960319207613
-0.000960319207633
-0.00113341744939
-0.00140355597731
-0.00113341744938
-0.00140355597732
-0.00173307098481
-0.00210043578209
-0.00173307098478
-0.00210043578198
-0.00245570354642
-0.00245570354643
-0.0014161175836
-0.00141611756798
-0.00238598712386
-0.00173308651695
-0.00213173758952
-0.00238598712384
-0.00173308652652
-0.00213173759013
-0.00318457339305
-0.00256734490944
-0.00298159719174
-0.00280062770579
-0.00318457339197
-0.002567344909
-0.00298159718737
-0.0033928818439
-0.00362838261496
-0.00349675332327
-0.00339288182071
-0.00362838260788
-0.00120491289222
-0.00103382679321
-0.00120491288907
-0.0010338267928
-0.00342645674487
-0.0027815963878
-0.0031243348234
-0.00310319914931
-0.00342645673854