/*--------------------------------*- C++ -*----------------------------------*\
  =========                 |
  \\      /  F ield         | OpenFOAM: The Open Source CFD Toolbox
   \\    /   O peration     | Website:  https://openfoam.org
    \\  /    A nd           | Version:  9
     \\/     M anipulation  |
\*---------------------------------------------------------------------------*/
FoamFile
{
    format      ascii;
    class       volScalarField;
    location    "0/FluidRegion";
    object      Cy;
}
// * * * * * * * * * * * * * * * * * * * * * * * * * * * * * * * * * * * * * //

dimensions      [0 1 0 0 0 0 0];

internalField   nonuniform List<scalar> 
132485
(
0.00360796559649
0.00307817196139
0.00258870812624
0.00360797516123
0.00285076458879
0.00233444568499
0.00207922555066
0.00307821207998
0.00233456009299
0.00183252297748
0.00158749421622
0.0025888012343
0.00207935209862
0.00158791261426
0.00114970408394
0.00360796559667
0.00307817197292
0.00258870810497
0.00360797516212
0.00285076459211
0.00233444568271
0.00207922555263
0.00307821208613
0.00233456009075
0.00183252298073
0.0015874942144
0.00258880125545
0.00207935209607
0.00158791261511
0.00114970408259
0.00360796559799
0.00307817197835
0.00258870811126
0.00360797516602
0.00285076461265
0.00233444570543
0.00207922554964
0.00307821209083
0.00233456010853
0.0018325229949
0.001587494213
0.00258880124241
0.00207935209754
0.00158791261376
0.00114970408105
0.00360796560902
0.00307817197303
0.00258870811302
0.00360797517034
0.00285076471077
0.00233444577355
0.00207922556636
0.00307821209119
0.00233456018023
0.0018325230605
0.00158749422711
0.00258880126517
0.00207935210123
0.00158791262708
0.00114970408523
0.0036079656567
0.0030781720307
0.00258870813785
0.00360797522013
0.00285076524128
0.00233444619631
0.00207922561195
0.0030782121581
0.00233456060345
0.00183252340865
0.00158749428505
0.00258880128934
0.00207935215573
0.00158791269089
0.00114970409762
0.0036079659516
0.00307817247618
0.0025887082175
0.00360797551593
0.00285076786469
0.0023344487305
0.00207922610158
0.00307821258515
0.00233456313671
0.00183252491297
0.00158749464881
0.00258880129675
0.00207935264831
0.00158791305318
0.0011497041306
0.00360796749153
0.00307817709167
0.00258870597962
0.0036079770514
0.00285077719483
0.00233446258122
0.00207923277817
0.00307821719215
0.00233457696027
0.00183252938244
0.00158749658374
0.00258879913229
0.00207935931287
0.00158791501863
0.00114970426007
0.00370094716317
0.00349993589048
0.00329292363059
0.00329296437667
0.00370094715635
0.00349993591165
0.003700947158
0.00349993590793
0.00329292361716
0.00329292361712
0.00382528405419
0.003825296338
0.00365610966811
0.00382528405423
0.00382529633809
0.00365610966835
0.00332298212783
0.00336784080372
0.0030968948355
0.00360796559702
0.0033229821277
0.0033678408041
0.00309689483616
0.00283554652056
0.00283957256001
0.00258627423987
0.00307817196162
0.00283554651651
0.00283957256052
0.00258627423955
0.00233634037132
0.00258870811084
0.00233634037653
0.00370098267239
0.00349997726338
0.00370098267734
0.00349997725289
0.00336777427306
0.00332300313831
0.00309685903427
0.003607975163
0.00336777427371
0.0033230031365
0.00309685903538
0.00184539869842
0.00183042286009
0.00160923905523
0.00207922554988
0.00184539869833
0.00183042285355
0.00160923903702
0.00329296433888
0.0032929643678
0.00283961078463
0.00283560799716
0.00258635715834
0.00307821208385
0.00283961078919
0.00283560795905
0.00258635717456
0.00139302305874
0.00132689885136
0.00120880489146
0.00158749421387
0.00139302306451
0.00132689883493
0.00120880488377
0.00233645645654
0.00258880127083
0.0023364565455
0.00183057851243
0.00184550891198
0.00160931835118
0.0020793520886
0.00183057850608
0.00184550883724
0.00160931833406
0.00132738403828
0.00139310446434
0.00120886957853
0.00158791261184
0.00132738406895
0.00139310444797
0.00120886959733
0.00114970408708
0.00370094715598
0.00349993590941
0.00370094715592
0.00349993591169
0.00329292366831
0.0032929236174
0.00382528405431
0.00382529633819
0.00365610966875
0.00382528405444
0.0038252963386
0.0036561096695
0.00332298213148
0.00336784080472
0.00309689483793
0.00360796559671
0.00332298213078
0.00336784080571
0.00309689483889
0.00283554647657
0.00283957256057
0.0025862742222
0.00307817196593
0.00283554652432
0.00283957256112
0.00258627422633
0.00233634036027
0.00258870814145
0.00233634032633
0.00370098267127
0.00349997727018
0.0037009826863
0.00349997723817
0.00336777427438
0.00332300314274
0.00309685903661
0.00360797516811
0.00336777427595
0.00332300312966
0.00309685903459
0.00184539871367
0.00183042285638
0.00160923904414
0.00207922555524
0.00184539873517
0.00183042286039
0.00160923905286
0.0032929643767
0.00329296435767
0.00283961078638
0.00283560795163
0.00258635715311
0.00307821208139
0.00283961078622
0.00283560796575
0.00258635715758
0.00139302306422
0.00132689883693
0.00120880488436
0.00158749421293
0.00139302306192
0.00132689882845
0.00120880488081
0.0023364564788
0.0025888012631
0.00233645648807
0.00183057850534
0.00184550889659
0.00160931832887
0.00207935209712
0.00183057850763
0.0018455088906
0.00160931832934
0.001327384045
0.00139310446566
0.00120886958242
0.0015879126241
0.00132738408454
0.00139310447127
0.00120886960134
0.00114970408919
0.00370094715771
0.0034999358974
0.00370094715712
0.00349993591398
0.00329292366831
0.00329292363149
0.00382528405474
0.00382529633873
0.00365610967069
0.00382528405546
0.00382529633927
0.00365610967363
0.00332298212974
0.00336784080851
0.00309689484314
0.00360796560075
0.00332298213474
0.00336784081509
0.0030968948516
0.00283554649609
0.00283957256882
0.00258627423937
0.00307817196896
0.00283554650617
0.00283957257256
0.00258627423585
0.00233634039161
0.0025887081268
0.00233634035642
0.00370098267889
0.00349997724657
0.00370098267845
0.00349997725222
0.00336777427829
0.00332300313554
0.00309685903966
0.00360797516728
0.00336777428472
0.00332300314098
0.00309685905019
0.00184539868248
0.00183042286173
0.0016092390525
0.00207922555711
0.00184539871353
0.00183042287283
0.00160923906994
0.00329296437625
0.00329296436392
0.00283961079109
0.00283560797805
0.00258635715767
0.0030782120876
0.00283961079927
0.00283560796915
0.00258635716569
0.00139302305708
0.00132689882889
0.00120880487988
0.00158749422125
0.00139302305391
0.00132689885855
0.00120880489481
0.00233645647022
0.00258880125598
0.00233645648842
0.00183057850818
0.00184550889739
0.0016093183303
0.00207935210038
0.00183057851845
0.00184550889115
0.00160931834882
0.00132738404655
0.00139310445458
0.00120886958542
0.00158791262748
0.00132738405875
0.00139310447579
0.00120886958544
0.00114970409008
0.00370094716705
0.00349993588572
0.00370094715948
0.00349993591203
0.00329292361836
0.00329292365361
0.00382528405724
0.00382529634081
0.00365610968116
0.00382528406133
0.00382529634514
0.00365610970004
0.00332298213253
0.00336784083134
0.00309689487151
0.0036079656203
0.00332298216591
0.00336784087188
0.00309689493377
0.0028355465364
0.00283957259031
0.00258627424618
0.00307817199691
0.00283554652127
0.00283957264356
0.00258627426828
0.00233634034116
0.00258870814534
0.00233634035412
0.00370098267186
0.00349997727256
0.00370098268329
0.00349997724953
0.0033677743009
0.00332300315686
0.00309685907497
0.00360797518787
0.00336777434182
0.00332300317342
0.00309685913343
0.00184539873651
0.00183042287943
0.00160923906996
0.00207922557455
0.00184539872398
0.00183042288655
0.00160923903821
0.00329296435911
0.00329296440001
0.00283961082039
0.00283560795827
0.00258635718496
0.00307821211978
0.00283961087211
0.00283560796854
0.0025863571942
0.00139302305925
0.00132689884854
0.00120880488836
0.00158749424622
0.00139302307494
0.00132689884925
0.00120880488689
0.00233645653841
0.00258880125292
0.00233645648669
0.00183057851626
0.00184550886146
0.00160931832546
0.00207935211582
0.00183057854071
0.00184550889373
0.00160931834793
0.00132738404849
0.00139310447139
0.00120886958181
0.00158791263854
0.00132738405985
0.00139310445054
0.00120886958993
0.00114970408587
0.00370094716742
0.00349993592266
0.00370094717923
0.00349993595055
0.00329292362821
0.0032929236706
0.00382528407164
0.00382529635527
0.0036561097455
0.00382528409613
0.00382529637995
0.00365610985307
0.00332298222428
0.00336784097019
0.00309689507749
0.0036079657432
0.00332298237784
0.003367841206
0.00309689544571
0.00283554655495
0.00283957277635
0.00258627434824
0.00307817215031
0.00283554659184
0.0028395731427
0.00258627456077
0.00233634038922
0.00258870812009
0.00233634047986
0.00370098267932
0.0034999772772
0.00370098270664
0.00349997728196
0.00336777443952
0.00332300323711
0.00309685927762
0.00360797531221
0.00336777467546
0.00332300337856
0.00309685964164
0.00184539872293
0.00183042293911
0.00160923905942
0.00207922572813
0.00184539872587
0.0018304230937
0.00160923910537
0.00329296438032
0.00329296439856
0.00283961100495
0.00283560801266
0.00258635727346
0.00307821226578
0.00283961136875
0.00283560804867
0.00258635749496
0.00139302307412
0.00132689888055
0.0012088048994
0.00158749439662
0.00139302310615
0.00132689888025
0.00120880488182
0.00233645650855
0.00258880129342
0.00233645663057
0.00183057858888
0.00184550890713
0.00160931834573
0.00207935226723
0.00183057873488
0.00184550887952
0.00160931836803
0.00132738409807
0.00139310448605
0.00120886959928
0.00158791280291
0.00132738413581
0.00139310450352
0.00120886960497
0.00114970409817
0.00370094721822
0.00349993600677
0.00370094730039
0.00349993615964
0.00329292371616
0.00329292382393
0.00382528415263
0.0038252964362
0.0036561100962
0.00382528427781
0.00382529656123
0.0036561106187
0.00332298276105
0.00336784175037
0.00309689634293
0.00360796642941
0.0033229837497
0.00336784295367
0.0030968985227
0.0028355467631
0.0028395741499
0.00258627519826
0.0030781734632
0.0028355471015
0.00283957706139
0.00258627732936
0.00233634062108
0.0025887080864
0.00233634111566
0.00370098273418
0.00349997736125
0.00370098281801
0.00349997750903
0.00336777521895
0.00332300376828
0.00309686053859
0.00360797599314
0.00336777642171
0.00332300475568
0.00309686271554
0.00184539879944
0.00183042349156
0.00160923916552
0.00207922742598
0.0018453989487
0.00183042470376
0.00160923938766
0.00329296442188
0.00329296454748
0.00283961237161
0.00283560823461
0.00258635812798
0.00307821357362
0.00283961527873
0.00283560855748
0.00258636026216
0.00139302316507
0.00132689901648
0.00120880492442
0.0015874952781
0.00139302327514
0.00132689921059
0.00120880496479
0.00233645674397
0.00258880123478
0.00233645727902
0.00183057914183
0.00184550899333
0.00160931845757
0.00207935396416
0.00183058034758
0.00184550909853
0.00160931865725
0.0013273842396
0.00139310455744
0.00120886962869
0.00158791369817
0.00132738444171
0.00139310469359
0.00120886966218
0.00114970417167
0.00370094748079
0.00349993650455
0.00370094783961
0.00349993712197
0.00329292407285
0.00329292450163
0.00382528454403
0.00382529682716
0.00365611166189
0.00382528510094
0.00382529738379
0.00365611357357
0.00332298626018
0.00336784542411
0.00309690355685
0.00360796976983
0.00332299181296
0.00336784993253
0.00309691285798
0.00283554694957
0.00283958574934
0.00258628513503
0.00307819561058
0.00283553584639
0.00283961165758
0.00258631919416
0.00233634165625
0.00258868242953
0.00233633335132
0.00370098299041
0.00349997788014
0.00370098336106
0.00349997845542
0.00336777889053
0.00332300726884
0.00309686774054
0.00360797932924
0.00336778339617
0.00332301278833
0.00309687701672
0.00184539931772
0.00183042807233
0.00160923989894
0.00207925937904
0.00184540008416
0.00183043625001
0.0016092408725
0.00329296481156
0.00329296521056
0.00283962394293
0.00283560837828
0.00258636803644
0.00307823564422
0.00283964977914
0.00283559733155
0.00258640204353
0.00139302356566
0.00132689957974
0.00120880503451
0.00158749878728
0.00139302397027
0.0013269001152
0.0012088051478
0.00233645778673
0.00258877562971
0.00233644952035
0.00183058371925
0.00184550949064
0.00160931918981
0.00207938588654
0.00183059188244
0.00184551024796
0.00160932014608
0.00132738487508
0.00139310496392
0.00120886975514
0.00158791723918
0.00132738542663
0.00139310537107
0.0012088698585
0.00114970436851
0.00360797528786
0.00307819549642
0.00258868005384
0.0036079848413
0.00285078092081
0.00233446845584
0.00207926412691
0.00307823552608
0.00233458281287
0.00183253084025
0.0015874997821
0.00258877323286
0.00207939063018
0.00158791825913
0.00114970442321
0.00370094856994
0.00349993721127
0.00370095066745
0.003499936466
0.00329292412876
0.00329292193006
0.00382528638841
0.00382529867078
0.00365611706717
0.00382528984206
0.00382530212382
0.00365612399882
0.00332299248524
0.00336785796164
0.00309691833556
0.00360800130298
0.00332298157842
0.00336788190241
0.00309692686778
0.00283553444898
0.00283961294904
0.00258632434997
0.00307817869432
0.00283553115868
0.00283958037671
0.00258631874878
0.00233633335446
0.00258867949286
0.00233633253367
0.00370098408285
0.00349997855984
0.00370098618911
0.00349997780768
0.003367791424
0.00332301346086
0.00309688248635
0.00360801084898
0.00336781536272
0.00332300255419
0.00309689101934
0.00184540038077
0.00183043911444
0.00160924128285
0.00207926367994
0.00184540037249
0.00183043882386
0.00160924127089
0.00329296486405
0.0032929626562
0.00283965105246
0.00283559591642
0.00258640718076
0.00307821872106
0.00283961848307
0.00283559260871
0.0025864015657
0.00139302417892
0.0013269003594
0.00120880519049
0.00158749951095
0.00139302413953
0.00132690031848
0.00120880518764
0.00233644952719
0.00258877269477
0.0023364486777
0.00183059475012
0.00184551054199
0.00160932056903
0.00207939018749
0.0018305944581
0.00184551056203
0.00160932054894
0.00132738572124
0.00139310560035
0.00120886991139
0.0015879179808
0.00132738564333
0.00139310556284
0.00120886989354
0.00114970441225
-0.00802727441744
-0.00844153414894
-0.00682351233046
-0.00727990486629
-0.00780733980949
-0.00802734971433
-0.00844214520724
-0.00650912903879
-0.00682011319322
-0.00727781678815
-0.00780698693269
-0.0082698936186
-0.00756210858188
-0.00783133405469
-0.00802733248057
-0.00827043107474
-0.00756139918257
-0.00783198903465
-0.0081069392753
-0.00821623818551
-0.0084420313006
-0.00810791628583
-0.00821707883773
-0.00816423162658
-0.00816455001147
-0.00736569561628
-0.00780715831146
-0.00736445489798
-0.00592099413093
-0.00608161467842
-0.00591745165772
-0.00607840697683
-0.00631301730496
-0.00661562930894
-0.00631022278688
-0.00661367788142
-0.00693825186998
-0.00693699236753
-0.0077404072278
-0.00698036485081
-0.00728882583609
-0.00774032175626
-0.00698001174182
-0.00728852723375
-0.00827056787166
-0.00756098310947
-0.00783206081899
-0.0080273482679
-0.00827060227874
-0.00756078930851
-0.00783203555524
-0.00810805197069
-0.00821720106196
-0.00844217295563
-0.00810807210843
-0.0082172129175
-0.00816457105738
-0.0081645672478
-0.0067294773454
-0.0060889222689
-0.00616158117313
-0.00650871507329
-0.00672894667539
-0.0060886290282
-0.00616119745364
-0.00736397865872
-0.0078069143831
-0.00736382189299
-0.00581227717797
-0.00581212620783
-0.00591651394275
-0.00607755032112
-0.00591627944362
-0.00607734264671
-0.00630957014666
-0.00661323084109
-0.00630943914089
-0.00661316501095
-0.0069365850574
-0.00693648146901
-0.00651244992978
-0.00774111923954
-0.00698252019967
-0.00729102605816
-0.00774059240481
-0.0069811516504
-0.00728953538448
-0.00673485366235
-0.00609192618418
-0.00616696947565
-0.00651016458221
-0.00673097578958
-0.00608973131458
-0.00616286131183
-0.00581511321373
-0.00581288690508
0.00827061354295
0.00774027112819
0.00727786173851
0.00681995069384
0.00672867756516
0.00827061354256
0.00774027110673
0.00727786174477
0.00681995069389
0.00672867758432
0.0082706135437
0.00774027113789
0.00727786173888
0.00681995069336
0.00672867756027
0.0082706135446
0.00774027115887
0.00727786174262
0.00681995069227
0.0067286775564
0.00827061354511
0.00774027117358
0.00727786173731
0.00681995069309
0.00672867756205
0.0082706135432
0.00774027112448
0.00727786173299
0.00681995069351
0.00672867755889
0.00827061354526
0.00774027118038
0.00681995069463
0.00672867756109
0.0081645775731
0.00816457755035
0.0084421847377
0.0082172221208
0.00810807038956
0.00844218473779
0.00821722210506
0.00810807039061
0.00802734059422
0.00783199851914
0.00756066948375
0.0082706135439
0.00802734060109
0.00783199851943
0.00756066948258
0.00728836682967
0.00697983027869
0.00774027115714
0.00728836681373
0.00697983023664
0.00780689689783
0.00736378025407
0.00780689689524
0.00736378025383
0.00650850436996
0.00616102449145
0.00608848734335
0.00672867756101
0.00650850436484
0.006161024491
0.00608848734315
0.00693646906364
0.00693646906362
0.00661317752049
0.00630940180799
0.00661317752039
0.00630940180801
0.00607725545607
0.00591618300466
0.00607725545615
0.00591618300468
0.00581206925532
0.00581206925532
0.00816457757319
0.00816457757323
0.00844218473768
0.00821722212049
0.00810807038935
0.00844218473781
0.00821722211994
0.00810807038947
0.00802734059015
0.00783199851921
0.00756066948529
0.00827061354408
0.00802734060164
0.00783199851923
0.0075606694815
0.00728836684345
0.00697983031057
0.00774027115757
0.0072883668111
0.00697983023567
0.00780689689795
0.0073637802541
0.00780689689826
0.00736378025416
0.00650850443116
0.00616102448161
0.00608848731601
0.00672867754653
0.00650850432815
0.00616102450058
0.00608848736198
0.00693646906365
0.00693646906368
0.00661317752056
0.00630940180802
0.00661317752063
0.00630940180807
0.00607725545609
0.00591618300463
0.00607725545621
0.00591618300482
0.00581206925525
0.00581206925549
0.00816457757393
0.00816457754928
0.00844218473779
0.00821722212109
0.00810807038947
0.00844218473783
0.00821722210436
0.00810807039107
0.00802734059774
0.0078319985195
0.00756066948358
0.00827061354355
0.00802734059541
0.00783199852041
0.00756066948666
0.0072883668242
0.00697983026511
0.00774027112653
0.00728836683587
0.00697983028303
0.00780689689804
0.00736378025412
0.00780689689514
0.00736378025381
0.00650850436603
0.00616102449278
0.00608848734467
0.00672867758291
0.00650850442809
0.00616102447756
0.00608848731345
0.00693646906364
0.0069364690636
0.00661317752055
0.00630940180801
0.00661317752035
0.00630940180799
0.00607725545608
0.0059161830047
0.00607725545611
0.0059161830045
0.00581206925536
0.00581206925511
0.00816457757423
0.00816457757496
0.00844218473792
0.00821722212168
0.00810807039015
0.00844218473789
0.00821722212287
0.00810807039068
0.00802734060296
0.00783199852047
0.00756066948607
0.00827061354389
0.00802734059625
0.00783199851985
0.00756066948251
0.00728836682493
0.00697983026762
0.00774027112581
0.0072883668213
0.00697983025512
0.00780689689806
0.00736378025406
0.0078068968978
0.00736378025399
0.00650850434405
0.00616102448775
0.00608848734158
0.00672867757331
0.00650850440882
0.00616102448855
0.00608848733378
0.00693646906358
0.00693646906354
0.00661317752045
0.00630940180798
0.00661317752035
0.00630940180797
0.00607725545605
0.00591618300456
0.00607725545611
0.00591618300465
0.0058120692552
0.00581206925529
0.0081645775219
0.0081645776017
0.00844218473799
0.00821722208604
0.0081080703922
0.00844218473781
0.0082172221412
0.00810807038945
0.00802734060649
0.00783199851984
0.00756066947972
0.00827061354348
0.00802734059501
0.00783199851978
0.00756066948518
0.00728836679309
0.00697983018441
0.00774027112541
0.0072883668363
0.00697983029777
0.00780689689187
0.00736378025345
0.00780689690093
0.00736378025427
0.00650850437932
0.00616102449186
0.00608848734416
0.00672867757422
0.0065085044009
0.0061610244847
0.00608848732499
0.00693646906353
0.0069364690636
0.00661317752009
0.00630940180795
0.00661317752058
0.00630940180803
0.0060772554561
0.00591618300468
0.00607725545613
0.00591618300464
0.00581206925533
0.00581206925527
0.0081645775476
0.00816457754684
0.00844218473778
0.00821722210348
0.00810807039101
0.00844218473788
0.00821722210269
0.00810807039089
0.00802734059383
0.00783199851974
0.00756066948392
0.00827061354423
0.00802734059937
0.00783199852019
0.00756066948514
0.00728836683043
0.00697983028
0.00774027114044
0.00728836682894
0.00697983027755
0.00780689689487
0.00736378025376
0.00780689689483
0.00736378025377
0.00650850435344
0.00616102449589
0.00608848735289
0.0067286775718
0.00650850439812
0.00616102448349
0.00608848732405
0.00693646906361
0.00693646906364
0.00661317752037
0.00630940180805
0.00661317752044
0.00630940180809
0.00607725545618
0.00591618300476
0.00607725545617
0.00591618300464
0.0058120692554
0.00581206925524
0.00802734060806
0.00783199851935
0.00756066947995
0.00827061354265
0.00802734058964
0.00783199851946
0.00756066948461
0.00728836679037
0.00697983017392
0.00774027110376
0.00728836684059
0.00697983030868
0.00650850437794
0.0061610244911
0.00608848734384
0.00672867757566
0.00650850439944
0.00616102448773
0.00608848733351
0.00607725545622
0.0059161830047
0.00607725545614
0.00591618300464
0.00581206925531
0.00581206925526
0.00827061354968
0.00774027114653
0.00727786176379
0.00681995070529
0.00672867757404
0.00827061354451
0.00774027114076
0.00727786173877
0.00681995069144
0.00672867756908
0.00827061354384
0.00774027113924
0.00727786174411
0.00681995069328
0.00672867756813
0.0082706135438
0.00774027113904
0.00727786173627
0.00681995069284
0.0067286775668
0.00827061354378
0.00774027113903
0.00727786173834
0.0068199506923
0.00672867756452
0.00827061354383
0.00774027113906
0.00727786174471
0.0068199506947
0.00672867757775
0.00827061354378
0.00774027113903
0.00727786174401
0.00681995069376
0.00672867756293
0.00827061354379
0.00774027113903
0.00727786173939
0.00681995069332
0.00672867756246
0.00827061354377
0.00774027113341
0.00727786173909
0.00681995069256
0.00672867757119
0.0082706135437
0.00774027113358
0.00727786173834
0.00681995069306
0.00672867756056
0.00827061354425
0.00774027115541
0.00727786173847
0.00681995069523
0.00672867757972
0.00827061354453
0.00774027115596
0.00727786174253
0.00681995069224
0.00672867755992
0.00827061354293
0.00774027110928
0.00727786174446
0.00681995069325
0.00672867755597
0.00827061354435
0.00774027115719
0.00727786173976
0.00681995069506
0.00672867756094
0.00816457756731
0.00816457757194
0.00844218474151
0.00821722211922
0.00810807040302
0.00844218473919
0.0082172221212
0.00810807039582
0.00802734060592
0.00783199853145
0.00756066949738
0.00827061354599
0.00802734060128
0.00783199852517
0.00756066949028
0.00728836683838
0.00697983027791
0.00774027114303
0.00728836683171
0.00697983027185
0.00780689690456
0.00736378025784
0.00780689690041
0.00736378025508
0.00650850439357
0.00616102448125
0.0060884873416
0.00672867757127
0.00650850438947
0.00616102448579
0.0060884873401
0.00693646906117
0.00693646906165
0.00661317751874
0.00630940180272
0.0066131775189
0.00630940180719
0.00607725544861
0.00591618299596
0.00607725545543
0.00591618300317
0.00581206925297
0.00581206925513
0.00816457755996
0.00816457756835
0.00844218473825
0.00821722211201
0.00810807039198
0.00844218473793
0.00821722211725
0.00810807039051
0.00802734059921
0.00783199852174
0.00756066948662
0.00827061354401
0.00802734059838
0.00783199852049
0.00756066948504
0.00728836682759
0.00697983026726
0.00774027113965
0.00728836682572
0.00697983026499
0.0078068968972
0.00736378025402
0.00780689689767
0.00736378025395
0.00650850438561
0.0061610244878
0.00608848733819
0.00672867756791
0.00650850438352
0.00616102448824
0.00608848733697
0.00693646906255
0.00693646906318
0.00661317751965
0.0063094018083
0.00661317752024
0.00630940180841
0.00607725545677
0.00591618300492
0.00607725545679
0.00591618300508
0.00581206925555
0.00581206925549
0.00816457757526
0.00816457757056
0.00844218473783
0.00821722212157
0.00810807038955
0.00844218473782
0.00821722211868
0.00810807038996
0.00802734059811
0.00783199851988
0.00756066948447
0.00827061354381
0.00802734059801
0.00783199851983
0.00756066948418
0.0072883668251
0.00697983026411
0.00774027113908
0.00728836682472
0.00697983026378
0.00780689689846
0.0073637802541
0.00780689689773
0.00736378025405
0.00650850438505
0.00616102448774
0.0060884873352
0.00672867756721
0.00650850438272
0.00616102448815
0.006088487336
0.00693646906348
0.00693646906358
0.0066131775205
0.00630940180824
0.00661317752052
0.00630940180813
0.00607725545643
0.00591618300488
0.00607725545628
0.00591618300475
0.00581206925537
0.00581206925532
0.00816457755792
0.00816457756092
0.00844218473782
0.00821722211067
0.00810807039064
0.00844218473783
0.00821722211316
0.00810807039085
0.00802734059799
0.00783199851986
0.00756066948404
0.00827061354379
0.00802734059795
0.00783199851986
0.00756066948382
0.00728836682453
0.00697983026366
0.00774027113903
0.00728836682428
0.0069798302636
0.00780689689604
0.00736378025387
0.00780689689621
0.00736378025388
0.00650850438224
0.00616102448845
0.00608848733623
0.00672867756637
0.00650850438188
0.00616102448903
0.00608848733659
0.0069364690636
0.00693646906361
0.00661317752037
0.00630940180803
0.00661317752034
0.00630940180799
0.00607725545614
0.00591618300469
0.00607725545612
0.00591618300469
0.00581206925531
0.00581206925532
0.00816457755729
0.00816457756966
0.00844218473783
0.00821722211041
0.00810807039088
0.00844218473783
0.00821722211878
0.0081080703902
0.00802734059792
0.00783199851978
0.00756066948342
0.00827061354379
0.00802734059793
0.00783199851962
0.00756066948301
0.00728836682367
0.00697983026347
0.00774027113903
0.00728836682232
0.00697983026314
0.00780689689592
0.00736378025387
0.00780689689736
0.00736378025401
0.00650850438121
0.00616102449087
0.00608848733785
0.00672867755319
0.00650850434265
0.00616102449749
0.00608848735598
0.0069364690636
0.00693646906363
0.00661317752033
0.00630940180798
0.00661317752045
0.006309401808
0.00607725545613
0.00591618300472
0.00607725545611
0.00591618300475
0.00581206925537
0.00581206925542
0.00816457755604
0.00816457758636
0.00844218473783
0.00821722210851
0.00810807039039
0.0084421847378
0.008217222129
0.00810807038897
0.00802734059806
0.00783199851994
0.00756066948488
0.00827061354381
0.00802734059806
0.00783199851975
0.00756066948481
0.00728836682633
0.00697983026409
0.00774027113906
0.00728836682584
0.00697983026395
0.00780689689615
0.00736378025396
0.00780689689978
0.00736378025431
0.00650850441439
0.00616102448102
0.00608848732016
0.00672867757244
0.00650850439473
0.0061610244838
0.0060884873291
0.00693646906363
0.00693646906366
0.00661317752048
0.00630940180802
0.0066131775207
0.00630940180805
0.00607725545612
0.00591618300456
0.0060772554561
0.00591618300455
0.00581206925517
0.00581206925518
0.00816457756948
0.00816457757033
0.0084421847378
0.00821722211717
0.00810807038938
0.00844218473781
0.00821722211859
0.00810807038996
0.00802734059798
0.00783199851963
0.00756066948402
0.00827061354377
0.00802734059798
0.00783199851976
0.00756066948421
0.00728836682421
0.00697983026358
0.00774027113902
0.00728836682495
0.00697983026377
0.00780689689793
0.00736378025415
0.00780689689763
0.00736378025406
0.00650850436867
0.00616102449031
0.00608848734243
0.00672867756994
0.00650850439359
0.00616102448641
0.00608848733091
0.00693646906364
0.00693646906363
0.00661317752062
0.00630940180803
0.00661317752053
0.00630940180803
0.00607725545611
0.00591618300464
0.00607725545613
0.00591618300463
0.00581206925528
0.00581206925526
0.00816457755525
0.00816457757066
0.00844218473782
0.00821722210847
0.00810807039043
0.00844218473782
0.00821722211903
0.00810807039014
0.00802734059797
0.00783199851978
0.00756066948387
0.0082706135438
0.00802734059806
0.00783199851989
0.00756066948443
0.00728836682401
0.00697983026355
0.0077402711397
0.00728836682493
0.0069798302629
0.00780689689584
0.00736378025388
0.00780689689765
0.00736378025405
0.00650850436816
0.00616102449092
0.0060884873429
0.00672867757042
0.00650850439201
0.00616102448575
0.00608848733112
0.00693646906362
0.00693646906362
0.00661317752041
0.00630940180799
0.00661317752048
0.006309401808
0.00607725545609
0.00591618300466
0.00607725545611
0.0059161830046
0.00581206925531
0.00581206925524
0.00816457757105
0.00816457755442
0.00844218473783
0.00821722211938
0.00810807039001
0.0084421847379
0.00821722210807
0.0081080703909
0.00802734059708
0.00783199851989
0.00756066948468
0.00827061354441
0.00802734060189
0.00783199851996
0.00756066948302
0.00728836682839
0.00697983027224
0.00774027115461
0.00728836681505
0.00697983024103
0.00780689689769
0.00736378025407
0.00780689689573
0.00736378025388
0.00650850439432
0.00616102448572
0.00608848733048
0.00672867755886
0.00650850436525
0.00616102449206
0.00608848734353
0.00693646906363
0.00693646906361
0.00661317752049
0.006309401808
0.00661317752037
0.00630940180799
0.00607725545608
0.00591618300461
0.00607725545612
0.0059161830047
0.00581206925524
0.00581206925536
0.00816457757155
0.00816457755369
0.00844218473783
0.00821722212028
0.00810807039034
0.00844218473783
0.00821722210773
0.00810807039097
0.00802734059683
0.00783199851975
0.0075606694835
0.00827061354366
0.00802734059651
0.00783199851997
0.00756066948424
0.00728836682609
0.00697983027134
0.00774027113227
0.00728836682777
0.00697983027343
0.00780689689756
0.00736378025402
0.00780689689565
0.00736378025388
0.0065085043684
0.00616102449377
0.00608848734461
0.00672867756335
0.006508504369
0.00616102449104
0.00608848734306
0.00693646906363
0.00693646906361
0.00661317752044
0.006309401808
0.00661317752034
0.00630940180797
0.00607725545612
0.00591618300473
0.0060772554561
0.00591618300466
0.0058120692554
0.00581206925531
0.0081645775718
0.00816457755289
0.00844218473789
0.00821722212056
0.00810807039062
0.00844218473779
0.00821722210715
0.00810807039095
0.00802734060142
0.00783199852023
0.00756066948493
0.00827061354305
0.00802734059142
0.00783199852016
0.00756066948614
0.00728836681839
0.00697983024045
0.00774027111012
0.00728836684182
0.00697983030607
0.00780689689758
0.00736378025405
0.0078068968956
0.00736378025387
0.00650850441822
0.00616102447765
0.00608848731606
0.00672867757597
0.00650850439786
0.00616102448449
0.0060884873301
0.00693646906363
0.00693646906362
0.00661317752044
0.00630940180799
0.00661317752036
0.00630940180797
0.00607725545608
0.00591618300449
0.00607725545607
0.00591618300455
0.00581206925509
0.00581206925519
0.00816457757181
0.00816457756834