/*--------------------------------*- C++ -*----------------------------------*\
  =========                 |
  \\      /  F ield         | OpenFOAM: The Open Source CFD Toolbox
   \\    /   O peration     | Website:  https://openfoam.org
    \\  /    A nd           | Version:  9
     \\/     M anipulation  |
\*---------------------------------------------------------------------------*/
FoamFile
{
    format      ascii;
    class       volScalarField;
    location    "0/FluidRegion";
    object      Cz;
}
// * * * * * * * * * * * * * * * * * * * * * * * * * * * * * * * * * * * * * //

dimensions      [0 1 0 0 0 0 0];

internalField   nonuniform List<scalar> 
132485
(
0.00749998876113
0.00749996657205
0.00749999701888
0.0074999888067
0.00766666665504
0.00766666667526
0.00749997122108
0.00749996668898
0.00766666665424
0.00766666666249
0.0074998189927
0.00749999703251
0.00749997127701
0.00749981608114
0.00749999388981
0.00816665545103
0.00816663323728
0.00816666380002
0.0081666554854
0.00833333331718
0.00833333333073
0.0081666377134
0.00816663335179
0.00833333331388
0.00833333333627
0.00816648569313
0.00816666370166
0.00816663774699
0.00816648273954
0.0081666605992
0.00883332216523
0.00883329985417
0.00883333041185
0.00883332211807
0.00899999998172
0.00899999997428
0.00883330440508
0.00883329998485
0.0089999999977
0.0089999999959
0.00883315239348
0.00883333031269
0.00883330455884
0.00883314941396
0.00883332729782
0.00949998884737
0.0094999665624
0.00949999711363
0.00949998880044
0.00966666664346
0.00966666664734
0.00949997101923
0.00949996670281
0.00966666666058
0.00966666666977
0.00949981894686
0.00949999704514
0.0094999712236
0.00949981600859
0.00949999391472
0.0101666555144
0.0101666333573
0.0101666636655
0.0101666554871
0.010333333219
0.0103333333539
0.0101666378335
0.0101666333172
0.0103333333212
0.0103333333972
0.0101664856754
0.0101666635887
0.0101666378797
0.0101664827103
0.010166660645
0.0108333221522
0.0108333000148
0.0108333304403
0.0108333221097
0.0109999992544
0.0110000000051
0.0108333044706
0.0108333000758
0.0109999999955
0.0110000002006
0.0108331523384
0.0108333303783
0.0108333045625
0.0108331494121
0.0108333273223
0.0114999886527
0.0114999664966
0.0114999956946
0.0114999886488
0.011666663997
0.0116666646045
0.0114999724155
0.0114999666058
0.0116666645935
0.0116666669941
0.0114998191864
0.0114999958262
0.0114999724869
0.0114998162809
0.0114999939703
0.00716666929691
0.00716667009059
0.00716667346311
0.00716667347494
0.00749999720688
0.0074999965033
0.00783333595963
0.00783333668316
0.00749999314016
0.00783334015451
0.00749999724627
0.00749999725303
0.00749999341146
0.00783333604658
0.00783333604599
0.00783333988664
0.00749998083138
0.00749996990292
0.00749977113042
0.00783334449181
0.00783335241014
0.00783336337872
0.00783356214634
0.00749999267869
0.00749972646003
0.0074999679913
0.00783336672916
0.00783334065033
0.0078336068445
0.00783336535551
0.00749999214656
0.00783333626359
0.00783334123657
0.00749999732644
0.0074999965464
0.0078333360704
0.00783333675067
0.00749996982479
0.00749998089744
0.00749977110488
0.00783334452636
0.00783336349331
0.00783335242245
0.00783356221991
0.0074999870347
0.00749970763554
0.00749996369727
0.00783336222756
0.00783334638866
0.00783362573739
0.00783336965288
0.00749999310701
0.0078333401355
0.00749972769097
0.00749999271167
0.00749996813313
0.00783336664549
0.00783360564312
0.00783334059081
0.00783336521791
0.00749997231268
0.00749998468958
0.0074999893883
0.00783351433653
0.00783336101401
0.00783334857555
0.00783334388215
0.00749999217583
0.00783333619816
0.00783334124087
0.00749970847768
0.00749998706405
0.00749996380258
0.00783336217849
0.00783362487558
0.0078333463661
0.00783336952464
0.00749998293065
0.00749997209631
0.00749998868633
0.00783351729082
0.00783335038606
0.00783336134555
0.0078333447598
0.00783333933521
0.00816666393645
0.00816666314515
0.00850000272105
0.00850000339571
0.00816665973121
0.00850000670824
0.00816666392736
0.00816666392355
0.00816666008598
0.00850000273683
0.00850000272603
0.00850000656884
0.00816664749369
0.00816663657877
0.00816643779587
0.00850001119688
0.00850001908427
0.00850003006236
0.00850022881155
0.00816665938071
0.00816639311845
0.00816663463654
0.00850003328334
0.00850000723377
0.00850027346934
0.00850003199952
0.00816665874583
0.00850000300897
0.00850000796355
0.00816666406339
0.00816666323108
0.0085000027473
0.00850000337629
0.0081666364922
0.00816664756073
0.0081664377594
0.00850001119148
0.00850003015879
0.00850001904973
0.00850022886297
0.00816665354108
0.00816637429527
0.00816663041792
0.00850002890688
0.00850001307608
0.00850029244619
0.00850003641835
0.00816665974291
0.00850000666734
0.00816639433447
0.00816665938997
0.00816663474346
0.00850003320236
0.00850027226344
0.00850000721999
0.00850003184938
0.00816663905721
0.00816665137341
0.00816665606184
0.00850018106892
0.00850002779266
0.00850001532594
0.00850001063379
0.00816665867971
0.00850000293015
0.00850000786934
0.00816637507655
0.00816665355535
0.00816663036274
0.00850002878745
0.00850029153451
0.00850001298447
0.00850003620552
0.00816664965048
0.00816663872228
0.00816665544934
0.0085001839581
0.00850001703858
0.00850002802604
0.00850001139275
0.00850000604693
0.00883333070459
0.00883332991455
0.00916666946629
0.00916667019343
0.00883332639921
0.00916667343718
0.00883333062378
0.00883333061013
0.00883332677338
0.00916666943373
0.00916666941497
0.00916667325811
0.00883331420002
0.0088333032691
0.00883310447331
0.00916667790628
0.0091666858037
0.00916669675359
0.00916689549613
0.00883332597967
0.00883305975497
0.00883330126455
0.00916669992213
0.00916667383949
0.00916694011409
0.00916669859707
0.00883332539749
0.00916666964926
0.00916667448263
0.00883333058022
0.00883332977015
0.00916666927049
0.00916666998949
0.00883330315342
0.00883331416911
0.00883310440601
0.00916667783295
0.00916669682686
0.00916668569869
0.00916689552808
0.0088333202479
0.00883304097087
0.00883329710837
0.00916669540617
0.00916667960073
0.00916695902456
0.0091667029643
0.00883332637846
0.00916667344127
0.00883306098973
0.00883332600993
0.00883330142539
0.0091666999135
0.00916693894718
0.00916667380949
0.00916669852747
0.00883330576118
0.00883331814697
0.00883332285145
0.00916684768479
0.00916669435817
0.00916668201951
0.0091666773372
0.00883332543967
0.00916666940112
0.00916667459234
0.00883304180063
0.00883332035517
0.00883329711585
0.00916669559601
0.00916695823345
0.00916667977939
0.00916670289123
0.00883331625181
0.00883330542813
0.00883332200566
0.00916685061103
0.00916668368507
0.00916669467087
0.00916667801575
0.009166672741
0.00949999735858
0.00949999659397
0.00983333603293
0.00983333682301
0.00949999311681
0.00983334027463
0.00949999731483
0.00949999729644
0.00949999345986
0.00983333611479
0.00983333609362
0.00983333993663
0.0094999808924
0.00949996995381
0.00949977116412
0.00983334456457
0.00983335249617
0.00983336342997
0.00983356219727
0.00949999267246
0.0094997264501
0.00949996794335
0.00983336676142
0.00983334064424
0.00983360687364
0.00983336537322
0.00949999205529
0.00983333630708
0.00983334129363
0.00949999727039
0.00949999647029
0.00983333601759
0.00983333670977
0.00949996983354
0.00949998085911
0.00949977108681
0.00983334452802
0.0098333635071
0.0098333523926
0.00983356220592
0.00949998687216
0.0094997075397
0.00949996357962
0.00983336225641
0.00983334643377
0.00983362570307
0.00983336958327
0.00949999310339
0.00983334007176
0.00949972768012
0.00949999272907
0.00949996812187
0.00983336655642
0.00983360560834
0.00983334054304
0.00983336519597
0.00949997221782
0.00949998469937
0.0094999894003
0.00983351431013
0.00983336094047
0.00983334861746
0.00983334391557
0.00949999214962
0.00983333629145
0.00983334124284
0.00949970842916
0.00949998701581
0.00949996370849
0.00983336212728
0.00983362484394
0.00983334631568
0.00983336948998
0.00949998291051
0.00949997190937
0.00949998856318
0.00983351724869
0.00983335042607
0.0098333612425
0.00983334471325
0.00983333944013
0.0101666640022
0.0101666632979
0.0105000027504
0.0105000035161
0.0101666599343
0.0105000069611
0.0101666639837
0.0101666639644
0.010166660126
0.0105000027683
0.0105000027484
0.010500006583
0.0101666475984
0.0101666366214
0.0101664378599
0.0105000112323
0.0105000191792
0.0105000300728
0.0105002288584
0.0101666594184
0.0101663931928
0.0101666346803
0.0105000334841
0.0105000073688
0.010500273568
0.0105000320762
0.0101666587507
0.0105000029897
0.0105000079453
0.0101666639916
0.0101666632727
0.0105000027055
0.0105000035188
0.0101666365029
0.0101666475728
0.010166437762
0.0105000111954
0.0105000301509
0.0105000191111
0.0105002288703
0.0101666536637
0.0101663742998
0.0101666303965
0.0105000289124
0.0105000130714
0.0105002924226
0.0105000363387
0.010166659827
0.0105000068984
0.0101663943233
0.0101666592745
0.0101666347339
0.0105000332588
0.0105002722784
0.0105000071912
0.0105000318488
0.0101666390308
0.0101666513669
0.0101666560655
0.0105001810308
0.0105000276959
0.0105000153037
0.010500010599
0.0101666587478
0.0105000028399
0.0105000078263
0.01016637509
0.0101666536817
0.0101666303566
0.0105000288077
0.0105002915382
0.0105000129931
0.0105000361903
0.0101666496832
0.0101666386316
0.010166655406
0.0105001839421
0.0105000170737
0.0105000279398
0.0105000113544
0.0105000060926
0.0108333306971
0.0108333299768
0.0111666693773
0.011166670162
0.0108333265736
0.0111666735861
0.0108333306177
0.0108333306019
0.0108333267391
0.0111666693771
0.011166669363
0.0111666731418
0.0108333142396
0.0108333032076
0.0108331044524
0.0111666778128
0.011166685744
0.0111666965509
0.0111668952911
0.0108333261359
0.0108330598358
0.0108333013996
0.0111667000797
0.0111666742423
0.0111669400114
0.0111666989333
0.0108333254335
0.0111666695009
0.0111666746089
0.0108333305869
0.0108333299258
0.0111666692932
0.0111666701156
0.0108333030906
0.0108333142296
0.0108331043758
0.0111666777782
0.0111666966379
0.0111666857013
0.0111668953386
0.0108333202559
0.0108330409961
0.0108332970416
0.0111666958576
0.0111666798153
0.0111669592766
0.0111667030656
0.0108333265891
0.0111666736424
0.0108330610204
0.0108333261018
0.0108333015069
0.0111667000492
0.0111669388257
0.011166674275
0.0111666988505
0.0108333055974
0.0108333180744
0.0108333226877
0.0111668477657
0.0111666943484
0.0111666819541
0.011166677195
0.0108333254372
0.0111666695798
0.0111666747058
0.0108330418364
0.0108333203152
0.010833297102
0.01116669583
0.0111669584501
0.0111666798022
0.0111667029953
0.0108333162957
0.0108333053364
0.0108333219714
0.01116685074
0.0111666837533
0.0111666947183
0.0111666780433
0.0111666727361
0.0114999972708
0.011499996606
0.01183333598
0.0118333368885
0.0114999933375
0.0118333404869
0.0114999971911
0.0114999971825
0.011499993211
0.011833335885
0.0118333358769
0.0118333394825
0.011499980667
0.0114999695004
0.0114997704624
0.011833344197
0.0118333520231
0.0118333626358
0.0118335608388
0.0114999948397
0.0114997254173
0.0114999690952
0.0118333633672
0.0118333575194
0.0118335991427
0.011833371709
0.0114999917033
0.0118333215433
0.0118333354166
0.0114999972849
0.0114999965929
0.0118333360297
0.011833336851
0.0114999693995
0.0114999806896
0.0114997704117
0.0118333442
0.0118333627352
0.0118333519865
0.0118335608917
0.011499987149
0.0114997082919
0.0114999638685
0.0118333692614
0.0118333467639
0.0118336273481
0.0118333699228
0.011499993317
0.0118333403635
0.0114997266458
0.0114999949206
0.0114999692743
0.0118333632621
0.0118335979299
0.011833357522
0.0118333716028
0.0114999723903
0.0114999847466
0.0114999894066
0.0118335146831
0.0118333610959
0.0118333486263
0.0118333438899
0.0114999917934
0.011833321568
0.0118333354416
0.011499709146
0.0114999871883
0.0114999639559
0.0118333691677
0.0118336265086
0.0118333467047
0.0118333698525
0.0114999830109
0.011499972125
0.0114999887007
0.011833517663
0.0118333504149
0.0118333614857
0.011833344743
0.0118333393354
0.0121666546143
0.012166635804
0.0121666768036
0.0121666546251
0.0123333377968
0.01233333193
0.0121666322427
0.0121666359592
0.0123333319347
0.0123333327768
0.0121664855611
0.0121666768603
0.0121666322604
0.0121664826458
0.0121666605323
0.0121666637859
0.0121666636818
0.0125000020795
0.0125000047128
0.0121666597058
0.0125000065557
0.0121666634977
0.0121666634926
0.0121666592528
0.012500001545
0.0125000015385
0.0125000044871
0.0121666506017
0.0121666353193
0.0121664418313
0.0125000055775
0.0125000334018
0.0125000229224
0.0125002436065
0.0121666444441
0.0121663984706
0.0121666290404
0.0125000251207
0.0125000207422
0.0125002598837
0.0125000360206
0.0121666641184
0.0124999893943
0.012500002238
0.0121666638277
0.0121666636944
0.0125000020995
0.0125000047049
0.012166635223
0.0121666506467
0.012166441796
0.0125000055801
0.012500023007
0.0125000333959
0.0125002436866
0.0121666535483
0.012166373479
0.0121666303377
0.0125000343128
0.0125000131229
0.0125002931922
0.0125000364062
0.0121666597506
0.0125000065511
0.0121663997169
0.0121666445606
0.0121666291814
0.0125000250671
0.0125002586873
0.0125000207397
0.0125000359045
0.0121666390117
0.0121666513366
0.0121666560406
0.0125001810753
0.0125000277449
0.0125000153088
0.0125000106382
0.0121666640578
0.0124999893091
0.0125000022175
0.0121663743198
0.012166653549
0.0121666304224
0.0125000342244
0.0125002923488
0.012500013073
0.0125000363417
0.0121666495749
0.012166638766
0.0121666553421
0.0125001839934
0.0125000170254
0.0125000280129
0.0125000112987
0.012500006056
-0.0485007556531
-0.0485016276541
-0.0483331708978
-0.0483340809224
-0.0485012335266
-0.0478336348913
-0.0478340839747
-0.0478339464922
-0.0476674716237
-0.0476675298042
-0.0478338238387
-0.0485015145475
-0.0485010566697
-0.0485020244458
-0.0481672288587
-0.0481674764471
-0.0481672294409
-0.0481666626576
-0.0485019051973
-0.0485011315696
-0.0481676411911
-0.0481670080969
-0.0481676622392
-0.0485007606478
-0.0481675004997
-0.0485019868983
-0.0481676811741
-0.0481681920469
-0.0485016256258
-0.0485025633433
-0.0481691385295
-0.0481693060539
-0.0485027127028
-0.0485026247129
-0.0481694738209
-0.04816959389
-0.0485029262706
-0.0481690111637
-0.0478335161332
-0.0478337125999
-0.0478336664618
-0.0475000471062
-0.0475001604124
-0.0475001455372
-0.0478338763668
-0.0478338438893
-0.0478348187123
-0.0475000670866
-0.047500049362
-0.0475000892632
-0.0474993301469
-0.0478347838576
-0.0478339746865
-0.047500015967
-0.0474994724322
-0.0475001362519
-0.0478337590194
-0.0475001280521
-0.0478339110614
-0.0478341886292
-0.0478342714445
-0.0475002920789
-0.0475003391861
-0.0475003988379
-0.0475004861309
-0.0478341157103
-0.0475001954402
-0.0475003146632
-0.0478346235745
-0.0475005511317
-0.0478350570914
-0.0478359938976
-0.0475006500252
-0.0475002917283
-0.0478360923607
-0.0478351793585
-0.0475002817776
-0.0475006360044
-0.0478345666587
-0.0475004588462
-0.0485003798741
-0.0484999317812
-0.0485001752767
-0.048500393735
-0.0481670130071
-0.048167299982
-0.048167178659
-0.0485003007284
-0.0485003461975
-0.0485001287469
-0.0481675853491
-0.0481674165377
-0.048167973968
-0.0481679442925
-0.0485010350923
-0.0481686940361
-0.0351667758089
-0.0351666743824
-0.0349999999954
-0.0349999999919
-0.0351666540256
-0.0345001091448
-0.0345000076959
-0.0343333333267
-0.0343333333175
-0.0344999873459
-0.0338334424839
-0.0338333410414
-0.0336666666573
-0.0336666666493
-0.03383332062
-0.0331667758202
-0.0331666743604
-0.0329999999899
-0.0329999999881
-0.033166654022
-0.0325001091549
-0.0325000077692
-0.0323333333229
-0.0323333333228
-0.032499987331
-0.0318334424826
-0.0318333410798
-0.0316666666661
-0.0316666666524
-0.0318333206431
-0.0311667758127
-0.0311666744895
-0.0309999999781
-0.0311666539817
-0.0351666808255
-0.0348333190939
-0.0351668545065
-0.0351667477934
-0.0351674681169
-0.0348331454807
-0.0348332521437
-0.0348325318663
-0.0351666946255
-0.0351675939772
-0.0351667756619
-0.0348332241744
-0.0348333053457
-0.0348324060001
-0.0348332242935
-0.035166675796
-0.0351666678778
-0.0348333255179
-0.0348333241021
-0.0348333320306
-0.035166656944
-0.0351666612312
-0.0348333430392
-0.034833338765
-0.0351666656227
-0.0351666607215
-0.0351666663714
-0.0348333459267
-0.0348333343361
-0.0348333392568
-0.0348333335915
-0.035166681525
-0.0348333184747
-0.0351667677702
-0.0351673133007
-0.0348332322298
-0.0348326866997
-0.0351672880075
-0.0351667564384
-0.0348327119925
-0.0348332435605
-0.0351666843734
-0.0348333156252
-0.0345000142132
-0.034166652401
-0.0345001878453
-0.0345000811663
-0.0345008014548
-0.0341664788205
-0.0341665854603
-0.0341658652017
-0.0345000279536
-0.0345009273079
-0.0345001089801
-0.0341665575112
-0.0341666386693
-0.0341657393308
-0.0341665576058
-0.034500009103
-0.0345000011917
-0.0341666587794
-0.0341666573644
-0.0341666652938
-0.0344999902859
-0.0344999945665
-0.0341666763679
-0.0341666720978
-0.0344999989486
-0.034499994052
-0.0344999997017
-0.0341666792447
-0.0341666676929
-0.0341666725899
-0.0341666669699
-0.0345000148594
-0.0341666518087
-0.0345001011047
-0.034500646635
-0.034166565564
-0.0341660200341
-0.0345006213416
-0.034500089772
-0.0341660453267
-0.034166576894
-0.0345000177067
-0.0341666489584
-0.0338333474387
-0.0334999857059
-0.0338335211852
-0.0338334144259
-0.0338341347878
-0.0334998121591
-0.0334999187748
-0.033499198537
-0.0338333612912
-0.0338342606419
-0.0338334423096
-0.0334998908497
-0.033499972008
-0.0334990726676
-0.0334998909435
-0.0338333424349
-0.0338333345279
-0.0334999921255
-0.0334999907078
-0.0334999986377
-0.0338333236018
-0.0338333278969
-0.0335000096956
-0.03350000543
-0.0338333321387
-0.0338333273342
-0.0338333328473
-0.0335000125559
-0.0335000009587
-0.0335000058995
-0.0335000002098
-0.0338333481929
-0.0334999851421
-0.0338334344384
-0.0338339799692
-0.0334998988974
-0.0334993533678
-0.0338339546755
-0.0338334231047
-0.0334993786603
-0.0334999102272
-0.0338333510392
-0.0334999822918
-0.0331666808251
-0.0328333190098
-0.0331668545213
-0.0331667477967
-0.0331674681252
-0.0328331454925
-0.0328332520892
-0.032832531872
-0.0331666946258
-0.0331675939808
-0.0331667756542
-0.0328332241852
-0.0328333053504
-0.0328324060077
-0.0328332242992
-0.0331666757849
-0.0331666679307
-0.0328333254972
-0.0328333241028
-0.0328333320941
-0.033166656942
-0.0331666612308
-0.0328333430266
-0.0328333387623
-0.0331666656458
-0.0331666607097
-0.0331666663329
-0.0328333459467
-0.0328333344098
-0.0328333392591
-0.0328333336077
-0.0331666815257
-0.0328333184736
-0.0331667677711
-0.0331673133019
-0.0328332322287
-0.0328326866991
-0.0331672880085
-0.0331667564389
-0.0328327119923
-0.0328332435606
-0.0331666843741
-0.032833315626
-0.0325000142204
-0.0321666524894
-0.0325001878525
-0.0325000811742
-0.0325008014617
-0.032166478822
-0.0321665855243
-0.032165865209
-0.032500027974
-0.0325009273197
-0.0325001090052
-0.0321665575184
-0.0321666387013
-0.0321657393443
-0.0321665576486
-0.0325000091609
-0.0325000012101
-0.0321666589415
-0.0321666574955
-0.0321666653624
-0.0324999902867
-0.0324999945649
-0.032166676382
-0.0321666720971
-0.0324999988669
-0.0324999940342
-0.0324999996264
-0.0321666792463
-0.0321666676245
-0.0321666725844
-0.0321666669355
-0.0325000148565
-0.0321666518035
-0.0325001011015
-0.0325006466321
-0.0321665655584
-0.0321660200287
-0.0325006213395
-0.0325000897708
-0.0321660453227
-0.0321665768918
-0.0325000177068
-0.0321666489582
-0.0318333475251
-0.0314999858857
-0.0318335211801
-0.0318334144886
-0.0318341347919
-0.0314998121487
-0.0314999189003
-0.0314991985393
-0.0318333613002
-0.0318342606479
-0.0318334423268
-0.0314998908433
-0.0314999720129
-0.0314990726691
-0.0314998909546
-0.0318333424639
-0.0318333345062
-0.031499992162
-0.0314999907328
-0.0314999986339
-0.0318333236176
-0.0318333278949
-0.0315000097219
-0.0315000054271
-0.0318333321798
-0.0318333273597
-0.0318333329532
-0.0315000125546
-0.0315000009447
-0.0315000059029
-0.0315000002229
-0.0318333481848
-0.0314999851311
-0.0318334344301
-0.0318339799614
-0.0314998988867
-0.031499353358
-0.0318339546699
-0.031833423102
-0.0314993786533
-0.0314999102234
-0.031833351039
-0.0314999822906
-0.0311666946436
-0.03116759398
-0.0311667756742
-0.0308332241753
-0.0308333053646
-0.0308324060011
-0.0308332243074
-0.0311666758625
-0.0311666679017
-0.0308333256228
-0.0308333241531
-0.0308333319704
-0.0311666655145
-0.0311666606917
-0.0311666662885
-0.0308333458762
-0.030833334203
-0.0308333392351
-0.0308333335555
-0.0311672880002
-0.0311667564337
-0.0308327119815
-0.0308332435539
-0.0311666843717
-0.0308333156227
-0.0445001091589
-0.0445000077869
-0.0443333333003
-0.0443333332727
-0.0444999873111
-0.0438334424893
-0.0438333411123
-0.0436666666774
-0.0436666666753
-0.0438333207132
-0.0431667758186
-0.0431666744415
-0.042999999998
-0.0430000000033
-0.0431666540464
-0.0425001091518
-0.0425000077746
-0.0423333333293
-0.0423333333342
-0.0424999873813
-0.0418334424859
-0.0418333411081
-0.0416666666712
-0.0416666666627
-0.041833320704
-0.0411667758193
-0.0411666744412
-0.0410000000021
-0.0409999999956
-0.0411666540005
-0.040500109153
-0.040500007775
-0.0403333333252
-0.0403333333328
-0.0404999873731
-0.0398334424875
-0.0398333411088
-0.0396666666554
-0.0396666666665
-0.0398333207046
-0.039166775821
-0.0391666744303
-0.0389999999925
-0.0390000000012
-0.0391666540512
-0.0385001091552
-0.0385000078165
-0.038333333331
-0.0383333333316
-0.0384999873655
-0.0378334424854
-0.0378333411414
-0.0376666666702
-0.0376666666658
-0.0378333206966
-0.0371667758125
-0.0371666744083
-0.037000000004
-0.037000000005
-0.0371666540648
-0.036500109144
-0.0365000077985
-0.0363333333295
-0.0363333333332
-0.0364999873711
-0.0358334424787
-0.0358333411951
-0.0356666666583
-0.035666666661
-0.0358333206812
-0.0445000142055
-0.0441666524589
-0.0445001878611
-0.0445000811567
-0.0445008014463
-0.0441664788305
-0.0441665855025
-0.0441658652111
-0.0445000279807
-0.0445009272871
-0.044500108978
-0.0441665575241
-0.0441666387009
-0.0441657393419
-0.0441665576462
-0.0445000091649
-0.0445000012664
-0.0441666589021
-0.0441666574846
-0.0441666654145
-0.0444999903034
-0.0444999945887
-0.0441666763957
-0.0441666721262
-0.0444999989362
-0.0444999940123
-0.0444999996788
-0.0441666792876
-0.0441666677289
-0.0441666726169
-0.0441666669969
-0.0445000148985
-0.0441666518476
-0.0445001011186
-0.0445006466246
-0.0441665656042
-0.0441660200726
-0.0445006213222
-0.0445000897591
-0.0441660453626
-0.0441665769278
-0.0445000177093
-0.0441666489906
-0.0438333475623
-0.0434999858139
-0.0438335211864
-0.0438334145142
-0.0438341347985
-0.0434998121549
-0.043499918851
-0.0434991985435
-0.0438333613109
-0.0438342606575
-0.0438334423509
-0.0434998908509
-0.0434999720285
-0.0434990726811
-0.043499890987
-0.0438333425228
-0.0438333346058
-0.0434999922278
-0.0434999908185
-0.0434999987395
-0.0438333236333
-0.0438333279159
-0.0435000097196
-0.0435000054402
-0.0438333322937
-0.0438333274048
-0.0438333330349
-0.0435000126315
-0.0435000010556
-0.0435000059494
-0.043500000319
-0.0438333482137
-0.0434999851504
-0.0438334344634
-0.0438339799961
-0.0434998989083
-0.04349935338
-0.0438339547022
-0.0438334231303
-0.0434993786729
-0.0434999102399
-0.0438333510616
-0.0434999823025
-0.0431666808627
-0.0428333190515
-0.0431668545149
-0.0431667478227
-0.0431674681262
-0.0428331454863
-0.042833252116
-0.0428325318704
-0.0431666946408
-0.0431675939888
-0.0431667756837
-0.0428332241826
-0.0428333053604
-0.0428324060118
-0.0428332243192
-0.0431666758534
-0.0431666679329
-0.0428333255595
-0.0428333241505
-0.0428333320703
-0.0431666569522
-0.043166661235
-0.0428333430329
-0.0428333387643
-0.0431666656244
-0.0431666607314
-0.0431666663642
-0.0428333459666
-0.0428333343955
-0.0428333392811
-0.0428333336609
-0.0431666815284
-0.042833318475
-0.0431667677749
-0.0431673133062
-0.0428332322305
-0.0428326867011
-0.0431672880132
-0.0431667564439
-0.0428327119942
-0.0428332435629
-0.0431666843779
-0.0428333156274
-0.0425000141541
-0.0421666524405
-0.042500187848
-0.0425000811262
-0.042500801457
-0.0421664788202
-0.0421665854892
-0.0421658652068
-0.042500027974
-0.0425009273211
-0.0425001090165
-0.0421665575165
-0.0421666386941
-0.0421657393459
-0.0421665576521
-0.0425000091863
-0.0425000012655
-0.0421666588931
-0.0421666574831
-0.0421666654031
-0.0424999902769
-0.0424999945647
-0.0421666763759
-0.0421666720991
-0.0424999989631
-0.0424999940648
-0.0424999997045
-0.0421666792979
-0.0421666677285
-0.0421666726125
-0.0421666669941
-0.0425000148585
-0.0421666518078
-0.0425001011037
-0.0425006466345
-0.0421665655628
-0.0421660200327
-0.0425006213415
-0.0425000897729
-0.0421660453258
-0.0421665768946
-0.0425000177079
-0.0421666489595
-0.0418333475822
-0.041499985841
-0.0418335211821
-0.0418334145278
-0.0418341347961
-0.0414998121542
-0.0414999188715
-0.0414991985448
-0.0418333613077
-0.0418342606558
-0.0418334423483
-0.0414998908503
-0.0414999720274
-0.0414990726799
-0.0414998909815
-0.0418333425168
-0.0418333345971
-0.0414999922262
-0.0414999908088
-0.0414999987308
-0.0418333236283
-0.0418333279019
-0.0415000097233
-0.0415000054358
-0.0418333322894
-0.0418333273898
-0.0418333330304
-0.0415000125909
-0.041500000978
-0.0415000059117
-0.0415000002195
-0.0418333481924
-0.0414999851418
-0.0418334344374
-0.0418339799674
-0.0414998988967
-0.0414993533661
-0.0418339546743
-0.0418334231053
-0.0414993786588
-0.0414999102267
-0.0418333510404
-0.0414999822916
-0.0411666809524
-0.0408333191513
-0.0411668545157
-0.0411667478875
-0.0411674681313
-0.0408331454875
-0.0408332521874
-0.040832531876
-0.0411666946408
-0.0411675939891
-0.0411667756785
-0.0408332241837
-0.040833305361
-0.040832406013
-0.0408332243169
-0.041166675844
-0.0411666679255
-0.0408333255597
-0.0408333241465
-0.0408333320677
-0.0411666569684
-0.0411666612366
-0.0408333430505
-0.0408333387674
-0.0411666655313
-0.0411666606913
-0.0411666662444
-0.0408333459517
-0.0408333343832
-0.040833339269
-0.040833333647
-0.041166681526
-0.0408333184748
-0.041166767771
-0.0411673133008
-0.0408332322297
-0.0408326866993
-0.0411672880074
-0.0411667564378
-0.0408327119922
-0.0408332435606
-0.0411666843728
-0.0408333156255
-0.0405000141561
-0.0401666523639
-0.0405001878493
-0.0405000811282
-0.040500801458
-0.0401664788218
-0.0401665854346
-0.0401658652033
-0.0405000279748
-0.0405009273214
-0.0405001090155
-0.0401665575179
-0.0401666386951
-0.0401657393452
-0.0401665576518
-0.0405000091845
-0.0405000012643
-0.0401666588936
-0.0401666574822
-0.0401666654024
-0.0404999902776
-0.0404999945647
-0.0401666763612
-0.0401666720957
-0.0404999989521
-0.0404999940581
-0.040499999691
-0.0401666792917
-0.0401666677156
-0.0401666726072
-0.0401666669774
-0.0405000148583
-0.0401666518071
-0.0405001011034
-0.0405006466339
-0.040166565562
-0.0401660200324
-0.0405006213409
-0.0405000897721
-0.0401660453256
-0.0401665768943
-0.0405000177072
-0.0401666489593
-0.0398333474758
-0.0394999857345
-0.039833521184
-0.039833414451
-0.0398341347903
-0.0394998121564
-0.0394999187939
-0.0394991985383
-0.0398333613089
-0.0398342606548
-0.0398334423494
-0.0394998908521
-0.0394999720289
-0.0394990726794
-0.0394998909857
-0.0398333425181
-0.0398333345976
-0.0394999922285
-0.0394999908169
-0.0394999987371
-0.0398333236064
-0.0398333278965
-0.0395000096994
-0.0395000054297
-0.0398333322777
-0.0398333273896
-0.0398333330139
-0.0395000126234
-0.0395000010383
-0.0395000059388
-0.0395000002962
-0.0398333481913
-0.0394999851405
-0.0398334344363
-0.0398339799671
-0.0394998988954
-0.0394993533657
-0.0398339546742
-0.0398334231055
-0.0394993786589
-0.0394999102278
-0.0398333510407
-0.0394999822928
-0.0391666807938
-0.0388333190546
-0.0391668545181
-0.0391667477744
-0.0391674681241
-0.0388331454899
-0.0388332521186
-0.0388325318723
-0.0391666946407
-0.0391675939887
-0.0391667756824
-0.038833224186
-0.0388333053652
-0.0388324060146
-0.0388332243251
-0.0391666758438
-0.0391666679219
-0.038833325575
-0.0388333241654
-0.0388333320844
-0.0391666569381
-0.0391666612298
-0.0388333430318
-0.0388333387632
-0.0391666656443
-0.0391666607354
-0.0391666663917
-0.0388333459716
-0.0388333344085
-0.0388333392824
-0.0388333336757
-0.0391666815246
-0.0388333184739
-0.0391667677696
-0.0391673133005
-0.0388332322288
-0.0388326866992
-0.0391672880076
-0.0391667564393
-0.0388327119923
-0.0388332435613
-0.0391666843745
-0.0388333156264
-0.0385000141682
-0.0381666524319
-0.0385001878509
-0.0385000811369
-0.0385008014597
-0.0381664788214
-0.0381665854833
-0.0381658652072
-0.0385000279828
-0.0385009273248
-0.0385001090268
-0.0381665575178
-0.0381666386974
-0.0381657393474
-0.0381665576549
-0.0385000092216
-0.0385000013016
-0.0381666589025
-0.0381666574872
-0.0381666654063
-0.038499990279
-0.0384999945648
-0.0381666763742
-0.0381666720987
-0.0384999989216
-0.0384999940449
-0.0384999996449
-0.0381666792583
-0.03816666763
-0.038166672575
-0.0381666668634
-0.0385000148583
-0.0381666518077
-0.0385001011034
-0.0385006466339
-0.0381665655626
-0.0381660200326
-0.0385006213409
-0.0385000897719
-0.0381660453255
-0.0381665768936
-0.0385000177071
-0.0381666489585
-0.0378333475473
-0.0374999858124
-0.0378335211808
-0.0378334145023
-0.0378341347935
-0.0374998121497
-0.0374999188491
-0.0374991985399
-0.0378333613128
-0.0378342606566
-0.0378334423568
-0.0374998908464
-0.0374999720255
-0.0374990726785
-0.0374998909869
-0.0378333425473
-0.0378333346278
-0.0374999922253
-0.0374999908197
-0.0374999987391
-0.0378333236217
-0.0378333279004
-0.0375000097169
-0.0375000054342
-0.0378333322468
-0.0378333273775
-0.0378333329683
-0.0375000126495
-0.0375000011056
-0.0375000059611
-0.0375000003839
-0.0378333481921
-0.0374999851415
-0.0378334344372
-0.0378339799674
-0.0374998988964
-0.037499353366
-0.0378339546743
-0.0378334231053
-0.0374993786591
-0.0374999102283
-0.0378333510404
-0.0374999822933
-0.0371666809281
-0.0368333191395
-0.0371668545082
-0.0371667478674
-0.0371674681249
-0.0368331454779
-0.0368332521766
-0.03683253187
-0.0371666946333
-0.0371675939858
-0.0371667756791
-0.036833224177
-0.0368333053664
-0.0368324060119
-0.0368332243329
-0.0371666758292
-0.0371666679054
-0.0368333256163
-0.0368333242066
-0.0368333321279
-0.0371666569632
-0.0371666612354
-0.0368333430498
-0.0368333387675
-0.0371666656669
-0.0371666607482
-0.0371666664214
-0.0368333459902
-0.0368333344324
-0.0368333392926