/*--------------------------------*- C++ -*----------------------------------*\
  =========                 |
  \\      /  F ield         | OpenFOAM: The Open Source CFD Toolbox
   \\    /   O peration     | Website:  https://openfoam.org
    \\  /    A nd           | Version:  9
     \\/     M anipulation  |
\*---------------------------------------------------------------------------*/
FoamFile
{
    format      ascii;
    class       volScalarField;
    object      p_rgh;
}
// * * * * * * * * * * * * * * * * * * * * * * * * * * * * * * * * * * * * * //
// Outlet (reference) pressure:
refPres $caseOutletp;

dimensions      [1 -1 -2 0 0 0 0];

internalField   nonuniform List<scalar> 
132485
(
0.180076
0.180074
0.180068
0.180076
0.179385
0.179385
0.180067
0.180074
0.179385
0.179385
0.180044
0.180068
0.180067
0.180044
0.180068
0.177255
0.177253
0.177247
0.177255
0.176564
0.176564
0.177246
0.177253
0.176564
0.176564
0.177223
0.177247
0.177246
0.177223
0.177247
0.174434
0.174432
0.174426
0.174434
0.173743
0.173743
0.174425
0.174432
0.173743
0.173743
0.174402
0.174426
0.174425
0.174402
0.174426
0.171613
0.171611
0.171605
0.171613
0.170922
0.170921
0.171604
0.171611
0.170921
0.170922
0.171581
0.171605
0.171604
0.171581
0.171605
0.168792
0.16879
0.168784
0.168792
0.1681
0.1681
0.168783
0.16879
0.1681
0.168101
0.16876
0.168784
0.168783
0.16876
0.168784
0.165971
0.165969
0.165963
0.165971
0.165279
0.165279
0.165962
0.165969
0.165279
0.165279
0.165939
0.165963
0.165962
0.165939
0.165963
0.16315
0.163148
0.163142
0.16315
0.162458
0.162458
0.163141
0.163148
0.162458
0.162458
0.163118
0.163142
0.163141
0.163118
0.163142
0.18152
0.181513
0.181522
0.181522
0.18007
0.180078
0.178699
0.178692
0.180069
0.178701
0.180081
0.180081
0.180086
0.178688
0.178688
0.178683
0.180073
0.180063
0.180043
0.178694
0.178697
0.178706
0.178726
0.180069
0.180046
0.180062
0.178696
0.1787
0.178723
0.178707
0.180082
0.178701
0.178688
0.18007
0.180078
0.178699
0.178692
0.180063
0.180073
0.180043
0.178694
0.178706
0.178697
0.178726
0.180025
0.180045
0.180057
0.178702
0.178745
0.178725
0.178713
0.180069
0.178701
0.180046
0.180069
0.180062
0.178696
0.178723
0.1787
0.178707
0.180054
0.180062
0.180012
0.178725
0.178716
0.178707
0.178757
0.180082
0.178701
0.178688
0.180045
0.180025
0.180057
0.178702
0.178725
0.178745
0.178713
0.180062
0.180054
0.180012
0.178725
0.178707
0.178716
0.178757
0.178701
0.177249
0.177257
0.175878
0.175871
0.177248
0.17588
0.17726
0.17726
0.177265
0.175867
0.175867
0.175862
0.177252
0.177242
0.177222
0.175873
0.175876
0.175884
0.175905
0.177248
0.177225
0.177241
0.175875
0.175879
0.175902
0.175886
0.17726
0.17588
0.175867
0.177249
0.177257
0.175878
0.175871
0.177242
0.177252
0.177222
0.175873
0.175884
0.175876
0.175905
0.177204
0.177224
0.177236
0.175881
0.175924
0.175904
0.175892
0.177248
0.17588
0.177225
0.177248
0.177241
0.175875
0.175902
0.175879
0.175886
0.177233
0.177241
0.177191
0.175904
0.175895
0.175886
0.175936
0.17726
0.17588
0.175867
0.177224
0.177204
0.177236
0.175881
0.175904
0.175924
0.175892
0.177241
0.177233
0.177191
0.175904
0.175886
0.175895
0.175936
0.17588
0.174428
0.174436
0.173057
0.17305
0.174427
0.173059
0.174439
0.174439
0.174444
0.173046
0.173046
0.173041
0.174431
0.174421
0.174401
0.173051
0.173055
0.173063
0.173084
0.174427
0.174404
0.17442
0.173054
0.173058
0.173081
0.173065
0.174439
0.173059
0.173046
0.174428
0.174436
0.173057
0.17305
0.174421
0.174431
0.174401
0.173051
0.173063
0.173055
0.173084
0.174382
0.174403
0.174415
0.17306
0.173103
0.173083
0.173071
0.174427
0.173059
0.174404
0.174427
0.17442
0.173054
0.173081
0.173058
0.173065
0.174412
0.17442
0.17437
0.173083
0.173074
0.173065
0.173115
0.174439
0.173059
0.173046
0.174403
0.174382
0.174415
0.17306
0.173083
0.173103
0.173071
0.17442
0.174412
0.17437
0.173083
0.173065
0.173074
0.173115
0.173059
0.171607
0.171615
0.170236
0.170229
0.171606
0.170238
0.171618
0.171618
0.171623
0.170225
0.170225
0.17022
0.17161
0.1716
0.17158
0.17023
0.170234
0.170242
0.170263
0.171606
0.171583
0.171599
0.170233
0.170237
0.17026
0.170244
0.171618
0.170238
0.170224
0.171607
0.171615
0.170236
0.170229
0.1716
0.17161
0.17158
0.17023
0.170242
0.170234
0.170263
0.171561
0.171582
0.171594
0.170239
0.170282
0.170262
0.17025
0.171606
0.170238
0.171583
0.171606
0.171599
0.170233
0.17026
0.170237
0.170244
0.171591
0.171599
0.171549
0.170262
0.170253
0.170244
0.170294
0.171618
0.170238
0.170224
0.171582
0.171561
0.171594
0.170239
0.170261
0.170282
0.17025
0.171599
0.171591
0.171549
0.170262
0.170244
0.170253
0.170294
0.170238
0.168786
0.168794
0.167415
0.167407
0.168785
0.167417
0.168797
0.168797
0.168802
0.167404
0.167404
0.167399
0.168789
0.168779
0.168759
0.167409
0.167412
0.167421
0.167442
0.168785
0.168762
0.168778
0.167412
0.167416
0.167439
0.167423
0.168797
0.167417
0.167403
0.168786
0.168794
0.167415
0.167407
0.168779
0.168789
0.168759
0.167409
0.167421
0.167412
0.167442
0.16874
0.168761
0.168773
0.167418
0.167461
0.167441
0.167429
0.168785
0.167417
0.168762
0.168785
0.168778
0.167412
0.167439
0.167416
0.167423
0.16877
0.168778
0.168728
0.167441
0.167432
0.167423
0.167473
0.168797
0.167417
0.167403
0.168761
0.16874
0.168773
0.167418
0.16744
0.167461
0.167429
0.168777
0.16877
0.168728
0.167441
0.167423
0.167432
0.167473
0.167417
0.165965
0.165973
0.164594
0.164586
0.165964
0.164596
0.165976
0.165976
0.165981
0.164583
0.164583
0.164578
0.165968
0.165958
0.165938
0.164588
0.164591
0.1646
0.164621
0.165964
0.165941
0.165956
0.164591
0.164595
0.164618
0.164602
0.165976
0.164596
0.164582
0.165965
0.165973
0.164594
0.164586
0.165958
0.165968
0.165938
0.164588
0.1646
0.164591
0.164621
0.165919
0.16594
0.165952
0.164597
0.16464
0.164619
0.164608
0.165964
0.164596
0.165941
0.165964
0.165956
0.164591
0.164618
0.164595
0.164602
0.165949
0.165957
0.165907
0.16462
0.164611
0.164601
0.164652
0.165976
0.164596
0.164582
0.16594
0.165919
0.165952
0.164597
0.164619
0.16464
0.164608
0.165956
0.165949
0.165907
0.16462
0.164602
0.164611
0.164652
0.164596
0.163144
0.163152
0.161773
0.161765
0.163143
0.161775
0.163155
0.163155
0.16316
0.161762
0.161762
0.161757
0.163147
0.163137
0.163117
0.161767
0.16177
0.161779
0.1618
0.163143
0.16312
0.163136
0.16177
0.161774
0.161797
0.161781
0.163155
0.161774
0.161761
0.163144
0.163152
0.161773
0.161765
0.163137
0.163147
0.163117
0.161767
0.161779
0.16177
0.1618
0.163098
0.163118
0.16313
0.161776
0.161819
0.161798
0.161787
0.163143
0.161775
0.16312
0.163143
0.163136
0.16177
0.161797
0.161774
0.161781
0.163128
0.163136
0.163086
0.161799
0.16179
0.16178
0.161831
0.163155
0.161774
0.161761
0.163119
0.163098
0.16313
0.161776
0.161798
0.161819
0.161787
0.163135
0.163128
0.163086
0.161799
0.161781
0.16179
0.161831
0.161775
0.160329
0.160327
0.160322
0.160329
0.159637
0.159637
0.160319
0.160327
0.159637
0.159637
0.160297
0.160322
0.160319
0.160297
0.160321
0.160323
0.16033
0.158952
0.158944
0.160322
0.158953
0.160334
0.160334
0.160338
0.158941
0.158941
0.158936
0.160325
0.160316
0.160296
0.158946
0.158949
0.158958
0.158979
0.160322
0.160298
0.160315
0.158948
0.158953
0.158976
0.15896
0.160334
0.158953
0.15894
0.160323
0.160331
0.158952
0.158944
0.160316
0.160325
0.160296
0.158946
0.158958
0.158949
0.158979
0.160277
0.160297
0.160309
0.158955
0.158998
0.158977
0.158966
0.160322
0.158953
0.160298
0.160322
0.160315
0.158948
0.158976
0.158953
0.15896
0.160306
0.160315
0.160265
0.158978
0.158969
0.158959
0.15901
0.160334
0.158953
0.15894
0.160297
0.160277
0.160309
0.158955
0.158977
0.158998
0.158966
0.160314
0.160306
0.160265
0.158978
0.15896
0.158969
0.15901
0.158954
0.413856
0.413866
0.412505
0.412781
0.413047
0.410815
0.410854
0.410519
0.409772
0.410075
0.410257
0.413993
0.414368
0.414541
0.412343
0.412413
0.412747
0.412913
0.414584
0.414504
0.412385
0.412916
0.412871
0.414028
0.41254
0.412952
0.411694
0.411601
0.414133
0.414326
0.412497
0.412679
0.414446
0.414269
0.412771
0.412674
0.413725
0.412343
0.410797
0.410873
0.411
0.409309
0.409383
0.409473
0.410853
0.411123
0.411218
0.409342
0.409377
0.409615
0.409724
0.411243
0.411216
0.40945
0.409737
0.409684
0.410933
0.409493
0.410697
0.410408
0.41048
0.409064
0.409195
0.409037
0.409045
0.41021
0.408955
0.408923
0.410759
0.409271
0.410861
0.410945
0.409371
0.409502
0.411021
0.411011
0.409565
0.409545
0.410687
0.409388
0.413591
0.413815
0.413847
0.414125
0.412322
0.412391
0.412563
0.413977
0.413211
0.413673
0.412047
0.41233
0.411874
0.412042
0.414025
0.412356
0.35715
0.357156
0.356461
0.356459
0.357146
0.354358
0.354365
0.353669
0.353668
0.354354
0.351567
0.351573
0.350877
0.350876
0.351563
0.348775
0.348782
0.348086
0.348085
0.348771
0.345984
0.34599
0.345294
0.345294
0.34598
0.343193
0.343199
0.342503
0.342502
0.343188
0.340401
0.340407
0.339711
0.340397
0.357119
0.355805
0.357134
0.357139
0.357121
0.355792
0.35579
0.355807
0.357153
0.357116
0.357142
0.355777
0.355772
0.355815
0.355783
0.357159
0.357155
0.355769
0.355768
0.35577
0.357106
0.357102
0.355813
0.355815
0.357147
0.357147
0.357127
0.355775
0.355773
0.355776
0.355796
0.357068
0.355856
0.357116
0.357103
0.355812
0.355827
0.357101
0.357133
0.355828
0.355795
0.357145
0.355781
0.354328
0.353014
0.354343
0.354347
0.354329
0.353001
0.352998
0.353016
0.354362
0.354325
0.35435
0.352986
0.35298
0.353023
0.352992
0.354367
0.354363
0.352977
0.352976
0.352978
0.354315
0.35431
0.353021
0.353024
0.354356
0.354356
0.354335
0.352984
0.352982
0.352984
0.353004
0.354277
0.353064
0.354325
0.354311
0.35302
0.353035
0.354309
0.354341
0.353037
0.353003
0.354353
0.352989
0.351536
0.350222
0.351551
0.351555
0.351538
0.350209
0.350206
0.350224
0.35157
0.351533
0.351559
0.350194
0.350189
0.350232
0.3502
0.351575
0.351572
0.350186
0.350185
0.350187
0.351523
0.351519
0.35023
0.350232
0.351564
0.351564
0.351543
0.350192
0.35019
0.350192
0.350212
0.351485
0.350273
0.351533
0.351519
0.350229
0.350244
0.351518
0.35155
0.350245
0.350212
0.351562
0.350197
0.348745
0.347431
0.34876
0.348764
0.348746
0.347418
0.347415
0.347433
0.348779
0.348742
0.348767
0.347403
0.347397
0.34744
0.347409
0.348784
0.34878
0.347394
0.347393
0.347395
0.348732
0.348727
0.347438
0.347441
0.348773
0.348772
0.348752
0.347401
0.347399
0.347401
0.347421
0.348694
0.347481
0.348742
0.348728
0.347437
0.347452
0.348726
0.348758
0.347454
0.34742
0.34877
0.347406
0.345953
0.344639
0.345968
0.345972
0.345955
0.344626
0.344624
0.344641
0.345987
0.34595
0.345976
0.344612
0.344606
0.344649
0.344618
0.345992
0.345989
0.344603
0.344602
0.344604
0.34594
0.345936
0.344647
0.344649
0.345982
0.345981
0.345961
0.344609
0.344607
0.344609
0.34463
0.345902
0.34469
0.34595
0.345937
0.344646
0.344661
0.345935
0.345967
0.344662
0.344629
0.345979
0.344614
0.343162
0.341848
0.343177
0.343181
0.343163
0.341835
0.341832
0.34185
0.343196
0.343159
0.343184
0.34182
0.341815
0.341858
0.341826
0.343201
0.343197
0.341811
0.34181
0.341813
0.343149
0.343145
0.341856
0.341858
0.34319
0.343189
0.343169
0.341818
0.341816
0.341818
0.341838
0.343111
0.341899
0.343159
0.343145
0.341855
0.34187
0.343143
0.343176
0.341871
0.341837
0.343187
0.341823
0.340405
0.340368
0.340393
0.339029
0.339023
0.339066
0.339035
0.34041
0.340406
0.33902
0.339019
0.339021
0.340399
0.340398
0.340378
0.339027
0.339025
0.339026
0.339047
0.340352
0.340384
0.33908
0.339046
0.340396
0.339032
0.396318
0.396303
0.395667
0.39556
0.396248
0.393492
0.393488
0.392838
0.392759
0.393451
0.39068
0.390682
0.390019
0.389962
0.390657
0.387875
0.387882
0.387209
0.387168
0.387865
0.385076
0.385085
0.384405
0.384374
0.385072
0.382281
0.38229
0.381604
0.381582
0.382279
0.379487
0.379496
0.378806
0.37879
0.379486
0.376693
0.376702
0.37601
0.375998
0.376693
0.373901
0.373909
0.373216
0.373207
0.3739
0.371109
0.371116
0.370422
0.370415
0.371107
0.368317
0.368324
0.367629
0.367624
0.368314
0.365525
0.365532
0.364837
0.364833
0.365522
0.362733
0.36274
0.362044
0.362042
0.36273
0.359941
0.359948
0.359252
0.35925
0.359938
0.39632
0.394984
0.396331
0.396348
0.39636
0.394968
0.394973
0.395017
0.396327
0.396327
0.396354
0.394927
0.394927
0.394996
0.39497
0.396341
0.396327
0.394902
0.394931
0.394926
0.39625
0.396265
0.394945
0.394961
0.396245
0.39628
0.396257
0.394869
0.394868
0.394903
0.394922
0.396281
0.395058
0.396379
0.396345
0.395052
0.395049
0.396334
0.396363
0.395041
0.395007
0.396329
0.394954
0.393486
0.392156
0.393501
0.39351
0.393517
0.392144
0.392145
0.392183
0.393502
0.393487
0.393519
0.392108
0.392108
0.392167
0.392144
0.393516
0.393507
0.392092
0.392113
0.392112
0.393436
0.39344
0.392134
0.392141
0.393449
0.393482
0.393457
0.392077
0.392074
0.392108
0.392123
0.39345
0.392229
0.393539
0.39351
0.392216
0.392218
0.393502
0.393539
0.392214
0.392185
0.393512
0.39214
0.390666
0.389342
0.390683
0.390689
0.39069
0.389332
0.38933
0.389363
0.390689
0.390665
0.390698
0.3893
0.3893
0.389352
0.389329
0.390703
0.390697
0.38929
0.389305
0.389305
0.390628
0.390625
0.389329
0.389331
0.390656
0.390686
0.390659
0.389285
0.389281
0.389311
0.389325
0.390629
0.389411
0.390709
0.390685
0.38939
0.389397
0.390679
0.390719
0.389394
0.389368
0.3907
0.38933
0.387856
0.386536
0.387875
0.387879
0.387875
0.386526
0.386524
0.386553
0.387884
0.387854
0.387888
0.386499
0.386498
0.386546
0.386522
0.387898
0.387893
0.386491
0.386502
0.386503
0.387827
0.38782
0.38653
0.386529
0.387864
0.387888
0.387861
0.386492
0.386489
0.386514
0.386528
0.387817
0.3866
0.387889
0.387868
0.386574
0.386583
0.387863
0.387903
0.386582
0.386555
0.387894
0.386525
0.385054
0.383736
0.385073
0.385076
0.385068
0.383726
0.383723
0.383748
0.385084
0.385051
0.385084
0.383702
0.3837
0.383745
0.38372
0.385097
0.385093
0.383695
0.383703
0.383705
0.38503
0.385021
0.383734
0.383732
0.385071
0.385091
0.385063
0.3837
0.383696
0.383716
0.38373
0.385011
0.383795
0.385076
0.385058
0.383764
0.383775
0.385054
0.385093
0.383775
0.383747
0.385091
0.383722
0.382255
0.380939
0.382274
0.382277
0.382266
0.380929
0.380925
0.380948
0.382287
0.382253
0.382283
0.380907
0.380904
0.380948
0.380921
0.382299
0.382294
0.380901
0.380906
0.380907
0.382235
0.382226
0.38094
0.380939
0.382278
0.382293
0.382266
0.380908
0.380903
0.380919
0.380933
0.38221
0.380995
0.38227
0.382253
0.38096
0.380973
0.38225
0.382287
0.380973
0.380943
0.38229
0.380923
0.379459
0.378144
0.379477
0.379481
0.379467
0.378133
0.37813
0.378151
0.379492
0.379457
0.379486
0.378113
0.378109
0.378153
0.378125
0.379503
0.379498
0.378107
0.37811
0.378112
0.379441
0.379434
0.378147
0.378146
0.379486
0.379496
0.379471
0.378115
0.37811
0.378122
0.378138
0.379412
0.378198
0.379468
0.379452
0.37816
0.378173
0.379449
0.379485
0.378174
0.378142
0.379492
0.378125
0.376665
0.37535
0.376682
0.376686
0.376671
0.375339
0.375336
0.375356
0.376698
0.376662
0.37669
0.37532
0.375316
0.37536
0.37533
0.376708
0.376703
0.375314
0.375316
0.375317
0.376648
0.376642
0.375354
0.375355
0.376693
0.3767
0.376676
0.375321
0.375318
0.375327
0.375343
0.376616
0.375403
0.376669
0.376654
0.375362
0.375377
0.376652
0.376686
0.375377
0.375345
0.376696
0.37533
0.373872
0.372557
0.373888
0.373892
0.373876
0.372545
0.372542
0.372561
0.373905
0.373869
0.373896
0.372528
0.372523
0.372567
0.372537
0.373914
0.373909
0.372521
0.372522
0.372523
0.373856
0.37385
0.372562
0.372563
0.3739
0.373905
0.373881
0.372528
0.372525
0.372532
0.372549
0.373822
0.372609
0.373873
0.373859
0.372567
0.372582
0.373856
0.37389
0.372582
0.37255
0.373901
0.372535
0.371079
0.369764
0.371095
0.371099
0.371082
0.369752
0.369749
0.369768
0.371113
0.371076
0.371103
0.369736
0.369731
0.369774
0.369744
0.37112
0.371116
0.369728
0.369729
0.36973
0.371064
0.371059
0.36977
0.369772
0.371107
0.371111
0.371088
0.369736
0.369733
0.369738
0.369756
0.371029
0.369816
0.371078
0.371064
0.369773
0.369788
0.371062
0.371095
0.369789
0.369756
0.371107
0.369742
0.368287
0.366972
0.368302
0.368306
0.368289
0.36696
0.366957
0.366975
0.368321
0.368284
0.36831
0.366944
0.366939
0.366982
0.366951
0.368327
0.368323
0.366936
0.366936
0.366938
0.368272
0.368267
0.366979
0.366981
0.368315
0.368317
0.368295
0.366943
0.36694
0.366945
0.366963
0.368236
0.367023
0.368285
0.368271
0.36698
0.366995
0.368269
0.368302
0.366996
0.366963
0.368313
0.366949
0.365495
0.36418
0.36551
0.365514
0.365497
0.364168
0.364165
0.364183
0.365528
0.365492
0.365518
0.364152
0.364147
0.36419
0.364159
0.365535
0.365531
0.364144
0.364143
0.364145
0.365481
0.365476
0.364187
0.364189
0.365523
0.365524
0.365502
0.364151
0.364148
0.364152
0.364171
0.365444
0.364231
0.365492
0.365479
0.364188
0.364203
0.365476
0.365509
0.364204
0.36417
0.365521
0.364156
0.362703
0.361388
0.362718
0.362722
0.362705
0.361376
0.361373
0.361391
0.362737
0.3627
0.362726
0.36136
0.361355
0.361398
0.361367
0.362742
0.362739
0.361352
0.361351
0.361353
0.362689
0.362684
0.361396
0.361398
0.362731
0.362731
0.36271
0.361359
0.361357
0.36136
0.361379
0.362652
0.361439
0.3627
0.362686
0.361396
0.361411
0.362684
0.362717
0.361412
0.361378
0.362728
0.361364
0.359911
0.358597
0.359926
0.35993
0.359913
0.358584
0.358581
0.358599
0.359945
0.359908
0.359934
0.358569
0.358563
0.358606
0.358575
0.35995
0.359947
0.35856
0.35856
0.358562
0.359897
0.359893
0.358604
0.358606
0.359939
0.359939
0.359918
0.358567
0.358565
0.358567
0.358587
0.35986
0.358648
0.359908
0.359894
0.358604
0.358619
0.359892
0.359925
0.35862
0.358586
0.359937
0.358572
0.399162
0.399135
0.398504
0.398362
0.399055
0.399172
0.397826
0.399178
0.399209
0.399227
0.397806
0.397821
0.397871
0.399168
0.399193
0.399213
0.397761
0.397758
0.397846
0.397817
0.399186
0.399163
0.397724
0.397765
0.397753
0.399069
0.399096
0.397763
0.39779
0.399045
0.399079
0.399058
0.397671
0.397666
0.397702
0.397724
0.399121
0.397897
0.399231
0.399191
0.397899
0.397888
0.399174
0.39919
0.397876
0.397833
0.399153
0.397774
0.407869
0.407818
0.407109
0.406839
0.407662
0.404935
0.404884
0.404197
0.403965
0.404738
0.402033
0.401991
0.401344
0.401159
0.40188
0.407907
0.406509
0.407906
0.40808
0.408108
0.406492
0.406604
0.406653
0.407855
0.408083
0.408046
0.406424
0.406404
0.406638
0.406573
0.407956
0.407878
0.406354
0.406464
0.406405
0.407484
0.407485
0.406197
0.406219
0.407583
0.407564
0.407543
0.406219
0.406152
0.406156
0.40617
0.407729
0.40648
0.407947
0.407916
0.406553
0.40654
0.407863
0.407811
0.406495
0.406392
0.407753
0.406321
0.404952
0.40358
0.404961
0.405053
0.405077
0.403559
0.403619
0.403672
0.40493
0.40505
0.405043
0.403505
0.403492
0.40365
0.403604
0.404979
0.404924
0.40344
0.403518
0.403479
0.404696
0.404725
0.403398
0.403436
0.404697
0.404704
0.404685
0.40333
0.40329
0.403318
0.403331
0.404831
0.403604
0.404993
0.404949
0.403635
0.403616
0.404911
0.404886
0.403585
0.403507
0.404843
0.403443
0.402047
0.400689
0.402052
0.402105
0.402128
0.400666
0.400697
0.400753
0.402034
0.402096
0.402106
0.400618
0.40061
0.400726
0.400691
0.40206
0.402024
0.400567
0.400623
0.4006
0.401887
0.401921
0.400583
0.40062
0.401856
0.401884
0.401862
0.400488
0.400468
0.400503
0.400524
0.401968
0.400745
0.402098
0.402053
0.400757
0.400741
0.402027
0.402026
0.400721
0.400663
0.401986
0.4006
0.339711
0.33692
0.340371
0.339056
0.340386
0.34039
0.340372
0.339043
0.339041
0.339059
0.340358
0.340353
0.339064
0.339067
0.34032
0.339107
0.340367
0.340354
0.339063
0.339078
0.337579
0.336265
0.337594
0.337598
0.33758
0.336252
0.336249
0.336267
0.337566
0.337562
0.336273
0.336275
0.337528
0.336316
0.337576
0.337562
0.336272
0.336287
0.337561
0.337593
0.33761
0.337616
0.33692
0.337606
0.334819
0.334825
0.334129
0.334128
0.334814
0.337613
0.337576
0.337602
0.336237
0.336232
0.336275
0.336243
0.337618
0.337615
0.336229
0.336227
0.33623
0.337607
0.337607
0.337586
0.336235
0.336233
0.336235
0.336255
0.336288
0.336254
0.337604
0.33624
0.334788
0.333474
0.334803
0.334807
0.334789
0.333461
0.333458
0.333476
0.334822
0.334785
0.33481
0.333446
0.33344
0.333483
0.333452
0.334827
0.334823
0.333437
0.333436
0.333438
0.334775
0.334771
0.333482
0.333484
0.334816
0.334815
0.334795
0.333444
0.333442
0.333444
0.333464
0.334737
0.333525
0.334785
0.334771
0.33348
0.333495
0.334769
0.334801
0.333497
0.333463
0.334813
0.333449
0.0728757
0.0728739
0.0728681
0.0721845
0.0721844
0.0728668
0.0721843
0.0721845
0.072844
0.0728664
0.0728439
0.0728677
0.0700546
0.0700527
0.070047
0.0700546
0.0693635
0.0693633
0.0700457
0.0700528
0.0693635
0.0693635
0.070023
0.0700471
0.0700458
0.0700229
0.0700467
0.0672335
0.0672317
0.0672259
0.0672337
0.0665423
0.0665422
0.0672247
0.0672316
0.0665422
0.0665424
0.0672019
0.0644126
0.0644108
0.0644051
0.07287
0.0728783
0.071499
0.0714918
0.0728687
0.0715005
0.0728735
0.0728636
0.0728431
0.0714932
0.0714971
0.0715054
0.0715258
0.0728691
0.0728458
0.0728615
0.0714954
0.0715001
0.0715232
0.071507
0.0728813
0.0715009
0.0714874
0.0728243
0.0728445
0.0728566
0.0715017
0.0715446
0.0715245
0.071513
0.0728536
0.0728619
0.0728121
0.0715248
0.0715158
0.0715065
0.071557
0.0728446
0.0728242
0.0728566
0.0715015
0.0715244
0.0715445
0.071513
0.0728615
0.0728536
0.0728118
0.0715249
0.0715069
0.0715158
0.0715572
0.0715009
0.0700489
0.0700571
0.0686779
0.0686705
0.0700476
0.0686795
0.07006
0.07006
0.0700646
0.0686669
0.0686669
0.0686621
0.0700522
0.0700421
0.070022
0.0686722
0.0686755
0.0686841
0.0687049
0.070048
0.0700248
0.0700404
0.0686745
0.068679
0.0687021
0.0686859
0.0700603
0.0686799
0.0686663
0.070049
0.0700571
0.068678
0.0686704
0.0700421
0.0700522
0.070022
0.0686724
0.0686844
0.0686755
0.0687048
0.0700033
0.0700235
0.0700355
0.0686806
0.0687236
0.0687035
0.068692
0.0700476
0.0686796
0.0700249
0.0700478
0.0700404
0.0686747
0.0687024
0.0686788
0.068686
0.0700325
0.0700408
0.069991
0.0687038
0.0686948
0.0686855
0.0687359
0.0700602
0.0686793
0.0686661
0.0700236
0.0700033
0.0700355
0.0686811
0.0687034
0.0687237
0.068692
0.0700404
0.0700325
0.0699908
0.0687039
0.0686859
0.0686948
0.0687362
0.0686798
0.0672278
0.0672359
0.0658568
0.0658494
0.0672266
0.0658585
0.0672389
0.0672389
0.0672435
0.0658457
0.0658457
0.065841
0.0672309
0.0672209
0.067201
0.0658511
0.0658545
0.0658633
0.0658841
0.0672269
0.0672037
0.0672194
0.0658534
0.0658578
0.0658811
0.0658649
0.0672392
0.0658588
0.0658453
0.0672279
0.0672357
0.0658568
0.0658491
0.0672211
0.0672307
0.0672007
0.0658512
0.0658629
0.0658541
0.0658833
0.0671822
0.0672024
0.0672145
0.0658595
0.0659025
0.0658824
0.0658709
0.0672265
0.0658584
0.0672033
0.0672274
0.0672194
0.0658532
0.0658808
0.0658582
0.0658646
0.0672115
0.0672198
0.06717
0.0658827
0.0658737
0.0658644
0.0659148
0.0644068
0.0644149
0.0630358
0.0630282
0.0644056
0.0630375
0.0644178
0.0644178
0.0644224
0.0630247
0.0630246
0.0630199
0.0644098
0.0643999
0.0643801
0.0630302
0.0630333
0.0630418
0.0630625
0.0644056
0.0643828
0.0643985
0.0630326
0.0630366
0.0630603
0.0630439
0.0644181
0.0630372
0.063024
0.0672266
0.0672243
0.0672018
0.0672256
0.0644125
0.0637212
0.0637213
0.0644037
0.0644106
0.0637212
0.0637213
0.0643808
0.0644047
0.0644036
0.0643808
0.0644045
0.0615915
0.0615894
0.0615913
0.0615896
0.0615838
0.0615825
0.0615597
0.0615835
0.0672395
0.0658584
0.0658452
0.0672025
0.0671821
0.0672145
0.0658594
0.0658823
0.0659024
0.0658709
0.0672193
0.0672115
0.0671697
0.0658828
0.0658648
0.0658737
0.0659151
0.0658587
0.0644067
0.0644146
0.0630357
0.0630282
0.0643999
0.0644096
0.0643797
0.06303
0.0630423
0.0630333
0.0630629
0.0643612
0.0643813
0.0643934
0.063039
0.0630816
0.0630614
0.0630499
0.0644054
0.0630374
0.0643826
0.0644059
0.0643981
0.0630323
0.06306
0.0630368
0.0630437
0.0643904
0.0643987
0.0643489
0.0630617
0.0630527
0.0630433
0.0630938
0.064418
0.0630377
0.0630242
0.0643815
0.0643611
0.0643934
0.0630384
0.0630612
0.0630814
0.0630498
0.0643983
0.0643904
0.0643486
0.0630617
0.0630438
0.0630526
0.063094
0.0630377
0.0615857
0.0615935
0.0615844
0.0615967
0.0615967
0.0616013
0.0615885
0.061579
0.0615585
0.0615611
0.0615856
0.0615937
0.0615786
0.0615887
0.061559
0.0615844
0.0615616
0.0615848
0.0615772
0.061597
0.0615604
0.0615401
0.0615723
0.0615772
0.0615693
0.0615276
0.157507
0.157505
0.1575
0.157507
0.156816
0.156816
0.157498
0.157505
0.156816
0.156816
0.157476
0.1575
0.157498
0.157476
0.1575
0.154686
0.154684
0.154679
0.154686
0.153995
0.153995
0.154677
0.154684
0.153995
0.153995
0.154655
0.154679
0.154677
0.154655
0.154678
0.151865
0.151863
0.151858
0.151865
0.151174
0.151174
0.151856
0.151864
0.151174
0.151174
0.151834
0.151858
0.151856
0.151834
0.151857
0.149044
0.149043
0.149037
0.149044
0.148353
0.148353
0.149035
0.149043
0.148353
0.148353
0.149013
0.149037
0.149035
0.149013
0.149036
0.157502
0.15751
0.156131
0.156124
0.1575
0.156132
0.157513
0.157513
0.157517
0.15612
0.15612
0.156115
0.157505
0.157495
0.157475
0.156125
0.156129
0.156137
0.156158
0.157501
0.157477
0.157493
0.156127
0.156132
0.156155
0.156139
0.157513
0.156132
0.156119
0.157502
0.15751
0.156131
0.156124
0.157495
0.157505
0.157475
0.156125
0.156137
0.156129
0.156157
0.157456
0.157476
0.157488
0.156133
0.156176
0.156156
0.156145
0.1575
0.156132
0.157477
0.157501
0.157493
0.156127
0.156155
0.156132
0.156138
0.157485
0.157494
0.157444
0.156157
0.156148
0.156138
0.156189
0.157513
0.156132
0.156119
0.157476
0.157456
0.157488
0.156133
0.156156
0.156176
0.156145
0.157493
0.157485
0.157444
0.156157
0.156139
0.156148
0.156189
0.156133
0.154681
0.154689
0.15331
0.153302
0.154679
0.153311
0.154692
0.154692
0.154696
0.153299
0.153299
0.153294
0.154684
0.154674
0.154654
0.153304
0.153307
0.153316
0.153337
0.15468
0.154657
0.154672
0.153306
0.153311
0.153334
0.153318
0.154692
0.153312
0.153298
0.154681
0.154689
0.15331
0.153302
0.154674
0.154684
0.154654
0.153304
0.153316
0.153307
0.153336
0.154635
0.154655
0.154667
0.153312
0.153355
0.153335
0.153324
0.154679
0.153311
0.154657
0.15468
0.154672
0.153306
0.153334
0.153311
0.153318
0.154664
0.154673
0.154623
0.153336
0.153327
0.153317
0.153368
0.154692
0.153312
0.153298
0.154655
0.154635
0.154667
0.153312
0.153335
0.153355
0.153324
0.154672
0.154664
0.154623
0.153336
0.153318
0.153326
0.153368
0.153312
0.15186
0.151868
0.150489
0.150481
0.151858
0.15049
0.151871
0.151871
0.151875
0.150478
0.150478
0.150473
0.151863
0.151853
0.151833
0.150483
0.150486
0.150495
0.150516
0.151859
0.151835
0.151851
0.150485
0.15049
0.150513
0.150497
0.151871
0.150491
0.150477
0.15186
0.151868
0.150489
0.150481
0.151853
0.151862
0.151833
0.150483
0.150495
0.150486
0.150515
0.151814
0.151834
0.151846
0.150491
0.150534
0.150514
0.150503
0.151858
0.15049
0.151836
0.151859
0.151851
0.150485
0.150513
0.15049
0.150497
0.151843
0.151852
0.151802
0.150514
0.150505
0.150496
0.150547
0.151871
0.150491
0.150477
0.151834
0.151814
0.151846
0.150491
0.150514
0.150534
0.150503
0.151851
0.151843
0.151801
0.150515
0.150497
0.150505
0.150547
0.15049
0.149039
0.149046
0.147667
0.14766
0.149037
0.147669
0.14905
0.14905
0.149054
0.147656
0.147656
0.147652
0.149041
0.149032
0.149012
0.147662
0.147665
0.147673
0.147695
0.149037
0.149015
0.14903
0.147664
0.147668
0.147692
0.147676
0.14905
0.147669
0.147656
0.149039
0.149046
0.147668
0.14766
0.149032
0.149041
0.149012
0.147662
0.147673
0.147664
0.147695
0.148993
0.149013
0.149025
0.147671
0.147713
0.147693
0.147682
0.149037
0.147669
0.149015
0.149037
0.14903
0.147664
0.147692
0.147668
0.147676
0.149022
0.14903
0.148981
0.147693
0.147684
0.147675
0.147726
0.14905
0.147669
0.147656
0.149013
0.148993
0.149025
0.147671
0.147693
0.147713
0.147682
0.14903
0.149022
0.14898
0.147694
0.147676
0.147684
0.147726
0.147669
0.146217
0.146226
0.144846
0.144839
0.146216
0.144848
0.146223
0.146221
0.146216
0.146223
0.145532
0.145532
0.146215
0.146221
0.145532
0.145532
0.146192
0.146216
0.146214
0.146191
0.146215
0.143402
0.1434
0.143394
0.143402
0.142711
0.142711
0.143393
0.1434
0.142711
0.142711
0.14337
0.143394
0.143393
0.14337
0.143394
0.140581
0.140579
0.140573
0.140581
0.13989
0.13989
0.140572
0.140579
0.13989
0.13989
0.140549
0.140573
0.140572
0.140549
0.140573
0.13776
0.137758
0.137753
0.13776
0.137069
0.137069
0.137751
0.137758
0.137069
0.137069
0.137728
0.137753
0.137751
0.137728
0.137752
0.134248
0.13493
0.134248
0.134248
0.134907
0.13493
0.134907
0.134931
0.146229
0.146229
0.146233
0.144835
0.144835
0.144831
0.146222
0.146211
0.146191
0.144841
0.144844
0.144853
0.144873
0.146217
0.146193
0.146209
0.144842
0.144848
0.14487
0.144854
0.146229
0.144849
0.144835
0.146218
0.146226
0.144846
0.144839
0.146211
0.146221
0.146191
0.144841
0.144853
0.144845
0.144873
0.146172
0.146192
0.146204
0.144849
0.144892
0.144872
0.144861
0.146216
0.144848
0.146193
0.146217
0.146209
0.144843
0.144871
0.144848
0.144854
0.146201
0.146209
0.14616
0.144872
0.144863
0.144854
0.144905
0.146229
0.144848
0.144835
0.146192
0.146172
0.146204
0.144849
0.144872
0.144892
0.144861
0.146209
0.146201
0.146159
0.144872
0.144854
0.144863
0.144905
0.144848
0.143396
0.143404
0.142025
0.142018
0.143395
0.142027
0.143407
0.143407
0.143412
0.142014
0.142014
0.14201
0.143399
0.143389
0.143369
0.14202
0.142023
0.142032
0.142052
0.143396
0.143372
0.143388
0.142022
0.142027
0.14205
0.142033
0.143408
0.142027
0.142014
0.143396
0.143405
0.142025
0.142018
0.14339
0.1434
0.143369
0.14202
0.142032
0.142023
0.142052
0.143351
0.143371
0.143383
0.142028
0.142071
0.142051
0.142039
0.143395
0.142027
0.143372
0.143396
0.143388
0.142022
0.14205
0.142026
0.142033
0.14338
0.143388
0.143339
0.142051
0.142042
0.142033
0.142083
0.143408
0.142027
0.142014
0.143371
0.143351
0.143383
0.142028
0.142051
0.142071
0.142039
0.143388
0.14338
0.143338
0.142051
0.142033
0.142042
0.142084
0.142027
0.140575
0.140583
0.139204
0.139197
0.140574
0.139206
0.140586
0.140586
0.140591
0.139193
0.139193
0.139189
0.140578
0.140568
0.140548
0.139199
0.139202
0.139211
0.139231
0.140574
0.140551
0.140567
0.139201
0.139205
0.139229
0.139212
0.140587
0.139206
0.139193
0.140575
0.140583
0.139204
0.139197
0.140569
0.140578
0.140548
0.139199
0.139211
0.139202
0.139231
0.14053
0.14055
0.140562
0.139207
0.13925
0.13923
0.139218
0.140574
0.139206
0.140551
0.140574
0.140567
0.139201
0.139229
0.139205
0.139212
0.140559
0.140567
0.140517
0.13923
0.139221
0.139212
0.139262
0.140587
0.139206
0.139193
0.14055
0.14053
0.140562
0.139207
0.13923
0.13925
0.139218
0.140567
0.140559
0.140517
0.13923
0.139212
0.139221
0.139263
0.139206
0.137754
0.137762
0.136383
0.136376
0.137753
0.136385
0.137765