/*--------------------------------*- C++ -*----------------------------------*\
  =========                 |
  \\      /  F ield         | OpenFOAM: The Open Source CFD Toolbox
   \\    /   O peration     | Website:  https://openfoam.org
    \\  /    A nd           | Version:  9
     \\/     M anipulation  |
\*---------------------------------------------------------------------------*/
FoamFile
{
    format      ascii;
    class       volScalarField;
    location    "0/FluidRegion";
    object      V;
}
// * * * * * * * * * * * * * * * * * * * * * * * * * * * * * * * * * * * * * //

dimensions      [0 3 0 0 0 0 0];

internalField   nonuniform List<scalar> 
132485
(
4.16952613097e-11
4.63156654941e-11
1.3445873812e-11
4.17023762922e-11
3.57184205853e-10
3.61908723054e-10
4.98677529508e-11
4.63153003795e-11
3.61749776025e-10
3.51766664175e-10
4.06995342179e-11
1.34443552841e-11
4.9860113935e-11
4.04939394222e-11
2.28557400226e-11
4.16952628036e-11
4.63156349535e-11
1.34458797028e-11
4.17023776168e-11
3.57184205096e-10
3.61908753391e-10
4.98677710076e-11
4.63152677046e-11
3.61749804471e-10
3.51766678283e-10
4.06995427114e-11
1.34443614252e-11
4.98600978685e-11
4.04939425567e-11
2.28557450613e-11
4.16952625958e-11
4.63156526813e-11
1.34458777196e-11
4.1702374027e-11
3.57184195589e-10
3.61908712286e-10
4.98677369356e-11
4.6315285617e-11
3.61749804353e-10
3.51766660921e-10
4.06995358137e-11
1.34443527571e-11
4.98601010491e-11
4.04939455003e-11
2.28557480174e-11
4.16952556146e-11
4.63156836784e-11
1.34458785514e-11
4.17023773184e-11
3.57184127516e-10
3.61908798058e-10
4.98677958042e-11
4.63152837915e-11
3.61749794448e-10
3.51766750716e-10
4.06995356537e-11
1.34443766303e-11
4.98600631999e-11
4.04939408779e-11
2.28557412162e-11
4.16952499121e-11
4.63156674423e-11
1.3445875761e-11
4.17023684772e-11
3.57183653607e-10
3.6190881971e-10
4.98677820013e-11
4.63152964361e-11
3.61749872648e-10
3.51766977082e-10
4.06995512027e-11
1.34443611786e-11
4.98601113657e-11
4.04939495623e-11
2.28557286106e-11
4.16951971047e-11
4.6315668776e-11
1.34458789079e-11
4.17023139263e-11
3.57180813921e-10
3.61909048073e-10
4.98679004409e-11
4.63153161019e-11
3.61750116271e-10
3.51767827768e-10
4.06996047187e-11
1.34443738504e-11
4.98602435512e-11
4.04940131345e-11
2.28557365481e-11
4.16949356514e-11
4.63155340971e-11
1.34454839565e-11
4.17020559516e-11
3.57169030735e-10
3.61905131322e-10
4.98696248803e-11
4.63151361197e-11
3.61746123454e-10
3.51769459443e-10
4.06999508798e-11
1.34439675809e-11
4.98619432916e-11
4.04943559047e-11
2.2855774358e-11
1.37077931655e-11
2.09726709513e-11
1.53419679456e-11
1.53430804455e-11
1.37077996267e-11
2.09726728094e-11
1.37077981675e-11
2.097267098e-11
1.53419627154e-11
1.53419625716e-11
2.35298055673e-11
2.35324118873e-11
4.762397002e-11
2.35298058995e-11
2.35324122104e-11
4.76239705649e-11
3.76658326007e-11
4.1878266785e-11
4.13173505778e-11
4.16952611924e-11
3.76658316933e-11
4.18782670826e-11
4.13173502168e-11
3.37032104627e-11
4.15833669253e-11
4.10293521011e-11
4.6315664446e-11
3.3703211775e-11
4.15833656906e-11
4.10293531426e-11
3.41721611864e-11
1.3445878275e-11
3.41721686502e-11
1.37088773778e-11
2.09739808305e-11
1.3708872909e-11
2.09739765823e-11
4.19012485024e-11
3.76674740462e-11
4.13096943426e-11
4.17023743791e-11
4.19012482935e-11
3.76674701439e-11
4.13096924689e-11
1.8060861255e-11
4.16808735924e-11
2.84471583302e-11
4.98677530671e-11
1.80608614196e-11
4.16808780876e-11
2.84471681039e-11
1.53430935271e-11
1.5343087263e-11
4.15793283977e-11
3.3698175962e-11
4.10226859774e-11
4.63152771905e-11
4.15793204798e-11
3.36981778569e-11
4.10226721492e-11
2.73754651254e-11
4.40669667792e-11
1.55478191835e-11
4.06995410288e-11
2.7375475789e-11
4.40669777114e-11
1.55478243666e-11
3.41655473701e-11
1.34443654404e-11
3.41655072049e-11
4.16621805906e-11
1.80607322123e-11
2.84455016077e-11
4.98600378966e-11
4.16621682045e-11
1.80607054232e-11
2.84454985243e-11
4.4333177807e-11
2.73634967091e-11
1.55557173378e-11
4.04939378595e-11
4.43331611559e-11
2.73635054858e-11
1.55557159799e-11
2.28557349212e-11
1.37078001134e-11
2.09726789798e-11
1.37078002785e-11
2.09726736947e-11
1.53419588464e-11
1.53419630012e-11
2.35298062431e-11
2.35324126155e-11
4.76239711986e-11
2.35298064655e-11
2.35324127733e-11
4.76239713744e-11
3.76658327925e-11
4.18782675566e-11
4.13173494015e-11
4.16952633578e-11
3.76658340663e-11
4.18782679898e-11
4.13173511217e-11
3.37031907098e-11
4.15833586307e-11
4.10293504789e-11
4.63156640983e-11
3.37032075629e-11
4.15833655852e-11
4.10293545127e-11
3.41721807565e-11
1.34458695081e-11
3.41721752878e-11
1.37088792065e-11
2.09739831375e-11
1.37088661222e-11
2.097396682e-11
4.19012488466e-11
3.7667471652e-11
4.13096922956e-11
4.17023695245e-11
4.19012471841e-11
3.76674642837e-11
4.13096914579e-11
1.80608673404e-11
4.16808819367e-11
2.84471680151e-11
4.98677910439e-11
1.80608749667e-11
4.16808821018e-11
2.84471660962e-11
1.53430844381e-11
1.53430867696e-11
4.1579319331e-11
3.36981651981e-11
4.10226789896e-11
4.63152803998e-11
4.15793237451e-11
3.36981787145e-11
4.10226843978e-11
2.73754746284e-11
4.40669815062e-11
1.55478244958e-11
4.0699540498e-11
2.73754719247e-11
4.4066980659e-11
1.55478263559e-11
3.41655403708e-11
1.3444364375e-11
3.41655397695e-11
4.16621814677e-11
1.80607266401e-11
2.84455103984e-11
4.98600956175e-11
4.16621824252e-11
1.8060724776e-11
2.84455103617e-11
4.43331764353e-11
2.7363508064e-11
1.55557174018e-11
4.0493937048e-11
4.43331447029e-11
2.73635031222e-11
1.55557037961e-11
2.28557302311e-11
1.37077985072e-11
2.09726833731e-11
1.37077998926e-11
2.09726727574e-11
1.53419689282e-11
1.53419585201e-11
2.35298064221e-11
2.35324128484e-11
4.76239713585e-11
2.35298060428e-11
2.35324125669e-11
4.76239704718e-11
3.76658374329e-11
4.18782676321e-11
4.13173510096e-11
4.16952615735e-11
3.76658317703e-11
4.18782663859e-11
4.13173500926e-11
3.37031981182e-11
4.15833616545e-11
4.10293453404e-11
4.63156523987e-11
3.37032017163e-11
4.15833647001e-11
4.10293526601e-11
3.4172158752e-11
1.34458738626e-11
3.41721703374e-11
1.37088727798e-11
2.09739819639e-11
1.37088729594e-11
2.0973977225e-11
4.19012481849e-11
3.76674729792e-11
4.1309693675e-11
4.17023745212e-11
4.19012478127e-11
3.76674715155e-11
4.13096934781e-11
1.80608559342e-11
4.16808698223e-11
2.84471572893e-11
4.98677681094e-11
1.8060866729e-11
4.16808704699e-11
2.84471523457e-11
1.534309447e-11
1.53430894638e-11
4.15793248009e-11
3.36981625408e-11
4.10226793406e-11
4.63152841283e-11
4.15793254631e-11
3.36981754127e-11
4.10226836045e-11
2.73754663232e-11
4.40669848611e-11
1.55478260909e-11
4.06995276394e-11
2.73754577197e-11
4.40669565747e-11
1.55478168289e-11
3.41655348357e-11
1.34443618208e-11
3.41655379458e-11
4.16621837558e-11
1.80607269908e-11
2.84455109649e-11
4.98600920218e-11
4.166217442e-11
1.80607239956e-11
2.8445498482e-11
4.43331794664e-11
2.73635146936e-11
1.55557224793e-11
4.04939297685e-11
4.43331541349e-11
2.736348671e-11
1.55557050555e-11
2.28557267973e-11
1.37077911269e-11
2.09726691959e-11
1.37077994681e-11
2.09726801644e-11
1.534197237e-11
1.53419662048e-11
2.35298052622e-11
2.35324119268e-11
4.76239682623e-11
2.35298039515e-11
2.3532410564e-11
4.7623963296e-11
3.76658321733e-11
4.1878263148e-11
4.13173506192e-11
4.16952578307e-11
3.76658336872e-11
4.18782575205e-11
4.13173459511e-11
3.37032221718e-11
4.15833754278e-11
4.10293686859e-11
4.63156582129e-11
3.37032021519e-11
4.15833681168e-11
4.10293576696e-11
3.41721928172e-11
1.34458701678e-11
3.41721697001e-11
1.37088794141e-11
2.09739822766e-11
1.37088703882e-11
2.09739789528e-11
4.19012461376e-11
3.76674735892e-11
4.13096925782e-11
4.17023696544e-11
4.19012386318e-11
3.76674684466e-11
4.13096867826e-11
1.80608752349e-11
4.16808805554e-11
2.84471587744e-11
4.98677843678e-11
1.80608708023e-11
4.16808912228e-11
2.84471773716e-11
1.53430872679e-11
1.53430880702e-11
4.15793250492e-11
3.36981926586e-11
4.10226861385e-11
4.63152655048e-11
4.15793190705e-11
3.36981500557e-11
4.1022674332e-11
2.73754632228e-11
4.40669726438e-11
1.55478214693e-11
4.06995504833e-11
2.73754828929e-11
4.40669832416e-11
1.55478248712e-11
3.41655346535e-11
1.34443513658e-11
3.41655279753e-11
4.16621756431e-11
1.80607134884e-11
2.84455074458e-11
4.98600944196e-11
4.16621821e-11
1.8060724777e-11
2.84455043527e-11
4.43331743596e-11
2.73635048376e-11
1.55557153903e-11
4.04939500314e-11
4.43331836702e-11
2.73635128689e-11
1.55557259014e-11
2.285574571e-11
1.37077964319e-11
2.09726700561e-11
1.37077968988e-11
2.09726756481e-11
1.53419633422e-11
1.53419651531e-11
2.35298011802e-11
2.35324079741e-11
4.76239520261e-11
2.35297952858e-11
2.35324020732e-11
4.76239251131e-11
3.76658252525e-11
4.18782411798e-11
4.13173349438e-11
4.16952355301e-11
3.76658158507e-11
4.18782011401e-11
4.13173050191e-11
3.37032156362e-11
4.15833706226e-11
4.10293670611e-11
4.63156617179e-11
3.37032232902e-11
4.15833667179e-11
4.10293899686e-11
3.41721758515e-11
1.34458895171e-11
3.41721958616e-11
1.37088784124e-11
2.0973989807e-11
1.37088653224e-11
2.09739699802e-11
4.19012239458e-11
3.76674731171e-11
4.13096802049e-11
4.17023455281e-11
4.19011822535e-11
3.76674505493e-11
4.13096486146e-11
1.80608688188e-11
4.16808918076e-11
2.84471711152e-11
4.98677913514e-11
1.80608668106e-11
4.16809039194e-11
2.84471645124e-11
1.53430977342e-11
1.5343089093e-11
4.15793298222e-11
3.36981857691e-11
4.102269457e-11
4.6315284763e-11
4.15793269565e-11
3.36981966694e-11
4.10227150383e-11
2.73754796404e-11
4.40669702328e-11
1.55478231868e-11
4.06995642027e-11
2.73754663558e-11
4.40670043868e-11
1.55478289442e-11
3.41655400179e-11
1.34443732509e-11
3.41655377879e-11
4.16621921373e-11
1.80607289143e-11
2.84455136121e-11
4.98600940885e-11
4.16622080863e-11
1.80607169038e-11
2.84455171297e-11
4.43331594165e-11
2.73635071601e-11
1.55557098405e-11
4.04939710206e-11
4.43331799089e-11
2.73635159689e-11
1.55557169048e-11
2.28557525022e-11
1.37077896411e-11
2.09726679984e-11
1.37077817818e-11
2.09726637641e-11
1.53419671728e-11
1.53419836495e-11
2.35297824693e-11
2.35323894365e-11
4.7623863581e-11
2.35297550811e-11
2.35323620984e-11
4.76237266712e-11
3.76657834356e-11
4.18781035328e-11
4.13172223762e-11
4.16951152185e-11
3.76657048477e-11
4.18778767905e-11
4.13169810507e-11
3.37032608293e-11
4.15833545077e-11
4.10294577003e-11
4.63156974635e-11
3.37035008353e-11
4.15832102221e-11
4.10297175073e-11
3.41722074498e-11
1.34458764519e-11
3.41722790129e-11
1.37088683907e-11
2.09739744356e-11
1.37088584912e-11
2.09739686501e-11
4.19010864187e-11
3.76674272123e-11
4.13095697559e-11
4.17022317559e-11
4.19008595258e-11
3.76673467961e-11
4.13093271498e-11
1.8060886327e-11
4.16809773154e-11
2.84471932503e-11
4.98682266485e-11
1.80609193983e-11
4.16811862615e-11
2.84472343359e-11
1.53430979367e-11
1.5343110985e-11
4.15793243296e-11
3.36982432548e-11
4.10228025978e-11
4.63153293113e-11
4.15791730674e-11
3.36984825416e-11
4.10230483084e-11
2.73754891877e-11
4.40669874374e-11
1.55478233454e-11
4.06997229725e-11
2.73755296118e-11
4.40670448574e-11
1.55478490858e-11
3.4165603472e-11
1.34443679381e-11
3.41656327382e-11
4.16622831951e-11
1.80607505375e-11
2.84455367663e-11
4.98605252187e-11
4.16624863809e-11
1.80607681212e-11
2.84455824022e-11
4.43331885325e-11
2.73635296922e-11
1.55557221384e-11
4.04941284019e-11
4.43332461797e-11
2.73635650245e-11
1.55557399083e-11
2.28557647104e-11
1.37077662011e-11
2.09726583732e-11
1.37077380394e-11
2.0972658353e-11
1.53420321815e-11
1.53421047432e-11
2.352969797e-11
2.35323050303e-11
4.76234402818e-11
2.35295796696e-11
2.35321867329e-11
4.76228870557e-11
3.76654779362e-11
4.18773815462e-11
4.13162616028e-11
4.16945609201e-11
3.76649680153e-11
4.18764519796e-11
4.13146960076e-11
3.3704970566e-11
4.15822591718e-11
4.10307563322e-11
4.63121101094e-11
3.3716159622e-11
4.15756310259e-11
4.10365096079e-11
3.4172057406e-11
1.34410132632e-11
3.4168272514e-11
1.37088503197e-11
2.09739656384e-11
1.37088106024e-11
2.09739597708e-11
4.19003643078e-11
3.76671188001e-11
4.1308606461e-11
4.17016758341e-11
4.18994331356e-11
3.76666145197e-11
4.13070440144e-11
1.80609984766e-11
4.16818394809e-11
2.84473456723e-11
4.9877256094e-11
1.80611676058e-11
4.16835553262e-11
2.84475511201e-11
1.53431456156e-11
1.53432369151e-11
4.15782132521e-11
3.36999254341e-11
4.1024080197e-11
4.63117743584e-11
4.15715929547e-11
3.37111334112e-11
4.10298493691e-11
2.73755833914e-11
4.40671047636e-11
1.55478621391e-11
4.07003669432e-11
2.73756833724e-11
4.40671900095e-11
1.55478895266e-11
3.41654190576e-11
1.34394860538e-11
3.41616546122e-11
4.16631365641e-11
1.80608552047e-11
2.84456854758e-11
4.98695632366e-11
4.16648515796e-11
1.80610218022e-11
2.84458988074e-11
4.43332952266e-11
2.73636182762e-11
1.55557525902e-11
4.0494781337e-11
4.4333410182e-11
2.73637308946e-11
1.55557919922e-11
2.28558011081e-11
4.16936776487e-11
4.63113016255e-11
1.34405665789e-11
4.17007976636e-11
3.57173857144e-10
3.61896513687e-10
4.98784818181e-11
4.63109548937e-11
3.61737469804e-10
3.51768741898e-10
4.07005562519e-11
1.34390374219e-11
4.98707869289e-11
4.04949592432e-11
2.28558271155e-11
1.37076545938e-11
2.09727888084e-11
1.37074402046e-11
2.09733837974e-11
1.53420951098e-11
1.53419510255e-11
2.35293076651e-11
2.35319148826e-11
4.7621803664e-11
2.35285927698e-11
2.35312002917e-11
4.76192721219e-11
3.76666648088e-11
4.18748826836e-11
4.13166361427e-11
4.16889796723e-11
3.7678332227e-11
4.18684523605e-11
4.1330599135e-11
3.3717294179e-11
4.15737859992e-11
4.10370543338e-11
4.63067658537e-11
3.37163649749e-11
4.15674850517e-11
4.10358732539e-11
3.41679302433e-11
1.34404579488e-11
3.41677639435e-11
1.37087348974e-11
2.09741032948e-11
1.37085131407e-11
2.09746802534e-11
4.18978618369e-11
3.76683200117e-11
4.13089887477e-11
4.16960978851e-11
4.18914132149e-11
3.76799890424e-11
4.13229653125e-11
1.80612284096e-11
4.16841275809e-11
2.84476487174e-11
4.98783597647e-11
1.8061227362e-11
4.16840871135e-11
2.8447630353e-11
1.53432270816e-11
1.53430684666e-11
4.15697457455e-11
3.37122515466e-11
4.10303923598e-11
4.63063835558e-11
4.15634404501e-11
3.37113180635e-11
4.1029214456e-11
2.73757418681e-11
4.40672609134e-11
1.55479137917e-11
4.07004924745e-11
2.73757203358e-11
4.40672387496e-11
1.55479060256e-11
3.41613184211e-11
1.34389300482e-11
3.41611662007e-11
4.16654184291e-11
1.80610816891e-11
2.84459888581e-11
4.98706948761e-11
4.16653861839e-11
1.80610908167e-11
2.84459793845e-11
4.43334585296e-11
2.73637674431e-11
1.55557974225e-11
4.04949033956e-11
4.43334553793e-11
2.73637556681e-11
1.5555799256e-11
2.28558245303e-11
6.15028083737e-11
3.93480242977e-11
8.48499260059e-10
7.2119674424e-10
4.57201796809e-11
6.17187274651e-11
3.92395317514e-11
6.1444232129e-11
8.57725643909e-10
7.25376445384e-10
4.58100518199e-11
6.53066760538e-11
9.72461769058e-11
9.77167577832e-11
6.16955338702e-11
6.52912344802e-11
9.75470190874e-11
9.79979128815e-11
1.05633351206e-10
6.35757657069e-11
3.93037374112e-11
1.05812421065e-10
6.36409647109e-11
1.89682533942e-11
1.89761280579e-11
4.72872729771e-11
4.58177118605e-11
4.72239483079e-11
5.7614359084e-11
6.61664515276e-11
5.76942898497e-11
6.64970690381e-11
6.12606533595e-11
4.72555222461e-11
6.15029476385e-11
4.7053678903e-11
1.79071864303e-11
1.76497106599e-11
3.33588823772e-11
3.57896249292e-11
1.02637911304e-10
3.33666300411e-11
3.57761238928e-11
1.02662430403e-10
6.5235418585e-11
9.76775966913e-11
9.80656002999e-11
6.17147659735e-11
6.51924551108e-11
9.77096717378e-11
9.80280156046e-11
1.05769761613e-10
6.35985287702e-11
3.919710157e-11
1.05672896518e-10
6.3553010426e-11
1.89629637262e-11
1.89523960265e-11
9.67164334729e-11
3.64675247099e-11
1.00055988906e-10
6.13898679391e-11
9.66919459906e-11
3.63959703574e-11
9.99038976462e-11
4.7154761562e-11
4.57893780706e-11
4.71017965956e-11
3.22109334104e-11
3.21221903739e-11
5.75872015749e-11
6.6426099941e-11
5.74679612638e-11
6.62959147244e-11
6.13846629897e-11
4.68731664927e-11
6.12428730908e-11
4.67475324441e-11
1.75555450311e-11
1.75112462819e-11
6.16573234906e-11
3.3094202849e-11
3.57893993116e-11
1.02086728036e-10
3.33174566902e-11
3.5807816969e-11
1.02520630103e-10
9.61788611312e-11
3.69929545034e-11
9.9941495235e-11
6.15290582496e-11
9.66232015583e-11
3.66303277728e-11
1.00196091633e-10
3.27284961215e-11
3.23899596703e-11
6.51591612963e-11
3.33688647085e-11
7.24249502274e-10
8.56734530218e-10
9.66106353727e-11
6.51591612467e-11
3.33688755303e-11
7.24249519546e-10
8.56734533932e-10
9.66106224553e-11
6.51591605739e-11
3.33688591692e-11
7.24249503628e-10
8.56734514472e-10
9.66106336481e-11
6.51591605676e-11
3.33688483523e-11
7.24249515139e-10
8.56734515643e-10
9.66106137777e-11
6.51591605541e-11
3.33688406666e-11
7.24249502829e-10
8.56734525104e-10
9.66106348245e-11
6.51591621593e-11
3.33688668483e-11
7.24249492994e-10
8.56734528914e-10
9.66106431569e-11
6.51591605569e-11
3.33688371065e-11
8.56734535114e-10
9.66106317419e-11
1.89448562496e-11
1.89448477716e-11
3.91664745588e-11
6.35120965215e-11
1.05590300719e-10
3.9166474386e-11
6.35120769568e-11
1.05590298961e-10
6.17073416534e-11
9.7980101021e-11
9.76990039444e-11
6.5159160371e-11
6.17073371365e-11
9.79800987805e-11
9.76989945651e-11
1.02650976635e-10
3.57619477273e-11
3.33688493822e-11
1.02650934387e-10
3.57619321781e-11
4.5767419471e-11
4.70528943158e-11
4.57674168301e-11
4.70528938984e-11
6.13312148371e-11
9.97249706501e-11
3.63358682657e-11
9.6610628828e-11
6.13312119835e-11
9.9724970134e-11
3.63358681924e-11
1.74786608475e-11
1.7478660816e-11
4.66307180984e-11
6.10733997756e-11
4.66307180241e-11
6.10733997835e-11
6.61236320276e-11
5.73351055231e-11
6.61236320649e-11
5.73351055274e-11
3.20495510723e-11
3.20495510754e-11
1.89448564288e-11
1.89448567535e-11
3.9166474411e-11
6.35120970033e-11
1.05590300686e-10
3.91664743183e-11
6.35120979721e-11
1.05590300534e-10
6.17073438196e-11
9.79801011564e-11
9.76990077774e-11
6.51591600977e-11
6.17073366031e-11
9.79800986441e-11
9.769899418e-11
1.02651003619e-10
3.5761958281e-11
3.33688489567e-11
1.02650934991e-10
3.57619325014e-11
4.57674197126e-11
4.70528943853e-11
4.57674202099e-11
4.70528945386e-11
6.13311784262e-11
9.97249555319e-11
3.63358381356e-11
9.66106431099e-11
6.13312370167e-11
9.97249837547e-11
3.6335887844e-11
1.7478660844e-11
1.74786608562e-11
4.6630718078e-11
6.10733997213e-11
4.66307181139e-11
6.1073399801e-11
6.61236319738e-11
5.73351054237e-11
6.61236320839e-11
5.73351056642e-11
3.20495510146e-11
3.20495511491e-11
1.89448567215e-11
1.89448474313e-11
3.91664744393e-11
6.35120977119e-11
1.0559030067e-10
3.91664745998e-11
6.35120763065e-11
1.05590299123e-10
6.17073391698e-11
9.79800993167e-11
9.76989980742e-11
6.51591609881e-11
6.17073408646e-11
9.79800988838e-11
9.76989991079e-11
1.02650960155e-10
3.57619422884e-11
3.33688651919e-11
1.02650971317e-10
3.57619468448e-11
4.57674198472e-11
4.70528944393e-11
4.57674168256e-11
4.70528939826e-11
6.13312147411e-11
9.97249723907e-11
3.63358692148e-11
9.66106103537e-11
6.13311728537e-11
9.97249505007e-11
3.63358362177e-11
1.74786608597e-11
1.74786608562e-11
4.66307181308e-11
6.10733997868e-11
4.66307181458e-11
6.10733999275e-11
6.61236320451e-11
5.73351055597e-11
6.61236321271e-11
5.73351053421e-11
3.20495510724e-11
3.20495509215e-11
1.89448567894e-11
1.89448567404e-11
3.91664747447e-11
6.35120979153e-11
1.05590300734e-10
3.91664749256e-11
6.3512097614e-11
1.05590300584e-10
6.17073364156e-11
9.79800978307e-11
9.76989891068e-11
6.51591613276e-11
6.17073407051e-11
9.79800996384e-11
9.7699001522e-11
1.02650919751e-10
3.57619153057e-11
3.33688654493e-11
1.02650984056e-10
3.57619623271e-11
4.57674198068e-11
4.70528944797e-11
4.57674194e-11
4.70528943961e-11
6.13311901137e-11
9.9724966175e-11
3.63358672808e-11
9.66106367296e-11
6.13312180686e-11
9.97249662476e-11
3.63358572591e-11
1.74786609139e-11
1.74786609348e-11
4.66307182971e-11
6.10734000236e-11
4.66307183686e-11
6.10734001663e-11
6.61236322223e-11
5.73351055214e-11
6.6123632367e-11
5.73351056606e-11
3.20495510178e-11
3.20495510914e-11
1.8944837092e-11
1.8944866851e-11
3.91664749434e-11
6.35120525571e-11
1.05590298272e-10
3.91664751264e-11
6.35121210125e-11
1.05590302733e-10
6.17073344293e-11
9.79800977705e-11
9.76989894601e-11
6.51591618804e-11
6.17073417202e-11
9.79801010113e-11
9.76990021258e-11
1.02650918719e-10
3.57619378158e-11
3.33688660374e-11
1.02650974772e-10
3.5761942207e-11
4.57674134849e-11
4.70528935818e-11
4.57674227808e-11
4.70528950778e-11
6.13312295325e-11
9.97249714541e-11
3.63358690027e-11
9.66106211325e-11
6.13311810157e-11
9.97249604508e-11
3.63358480516e-11
1.74786609156e-11
1.74786610259e-11
4.66307183144e-11
6.10734001955e-11
4.66307185484e-11
6.10734002411e-11
6.61236324096e-11
5.73351057398e-11
6.61236323932e-11
5.73351056563e-11
3.20495511332e-11
3.2049551085e-11
1.8944846851e-11
1.89448466882e-11
3.91664751781e-11
6.35120751808e-11
1.05590300503e-10
3.9166475099e-11
6.35120748999e-11
1.05590300425e-10
6.17073425751e-11
9.79801014076e-11
9.76990051353e-11
6.51591614074e-11
6.17073389731e-11
9.79800994176e-11
9.76989956339e-11
1.02650983259e-10
3.57619519558e-11
3.3368857895e-11
1.02650950705e-10
3.57619333303e-11
4.57674168192e-11
4.70528942724e-11
4.57674169645e-11
4.70528943928e-11
6.13312304348e-11
9.97249771415e-11
3.63358784325e-11
9.66106150114e-11
6.13311774211e-11
9.97249589413e-11
3.63358472206e-11
1.74786609944e-11
1.74786610189e-11
4.66307184482e-11
6.10734002083e-11
4.66307185021e-11
6.10734002325e-11
6.61236323706e-11
5.73351057378e-11
6.61236323429e-11
5.73351055744e-11
3.20495511461e-11
3.20495510401e-11
6.17073335262e-11
9.79800986433e-11
9.76989873606e-11
6.51591622584e-11
6.17073449663e-11
9.79801021927e-11
9.76990102076e-11
1.02650908001e-10
3.57619342317e-11
3.33688774231e-11
1.02651012582e-10
3.57619637385e-11
6.1331228713e-11
9.97249705508e-11
3.63358688217e-11
9.66106362437e-11
6.13312072701e-11
9.97249654159e-11
3.63358574187e-11
6.61236325657e-11
5.73351057495e-11
6.61236329619e-11
5.73351059661e-11
3.2049551114e-11
3.20495511846e-11
6.51591587009e-11
3.33688588171e-11
7.24249401618e-10
8.56734340281e-10
9.66105990347e-11
6.51591615481e-11
3.33688590541e-11
7.2424951912e-10
8.56734531714e-10
9.66106268588e-11
6.51591611875e-11
3.33688588048e-11
7.24249524911e-10
8.56734527538e-10
9.66106263689e-11
6.51591610048e-11
3.3368858741e-11
7.24249496747e-10
8.5673452316e-10
9.66106271638e-11
6.51591610217e-11
3.33688587658e-11
7.24249501897e-10
8.56734533785e-10
9.66106308598e-11
6.51591610643e-11
3.33688587429e-11
7.24249520626e-10
8.56734511651e-10
9.66106153069e-11
6.51591609879e-11
3.33688587396e-11
7.24249518843e-10
8.56734522512e-10
9.66106302114e-11
6.51591609731e-11
3.33688587563e-11
7.24249505109e-10
8.56734520873e-10
9.66106311049e-11
6.51591611444e-11
3.33688616615e-11
7.24249503965e-10
8.56734519988e-10
9.66106234912e-11
6.51591613302e-11
3.33688616453e-11
7.24249502038e-10
8.56734531784e-10
9.66106364191e-11
6.51591612068e-11
3.33688503938e-11
7.24249502447e-10
8.56734510194e-10
9.6610607575e-11
6.51591610859e-11
3.33688499019e-11
7.24249513944e-10
8.56734519142e-10
9.66106269435e-11
6.51591619337e-11
3.33688744356e-11
7.24249520264e-10
8.56734538397e-10
9.66106503308e-11
6.51591605325e-11
3.33688491591e-11
7.24249506721e-10
8.56734520118e-10
9.66106253758e-11
1.8944851205e-11
1.89448548973e-11
3.91664735752e-11
6.3512082376e-11
1.05590289224e-10
3.91664751562e-11
6.35120928869e-11
1.05590298453e-10
6.17073383399e-11
9.79800841481e-11
9.76989829983e-11
6.51591612917e-11
6.17073397731e-11
9.79800951749e-11
9.76989938035e-11
1.0265094589e-10
3.57619385235e-11
3.33688591994e-11
1.02650955862e-10
3.57619415733e-11
4.57674181466e-11
4.70528921244e-11
4.57674205609e-11
4.70528962982e-11
6.13311938858e-11
9.97249379891e-11
3.63358546681e-11
9.66106209256e-11
6.13312031944e-11
9.97249637429e-11
3.63358609196e-11
1.74786598861e-11
1.74786619568e-11
4.66307080055e-11
6.10733799268e-11
4.66307193326e-11
6.10733998114e-11
6.61236102083e-11
5.73350903137e-11
6.6123632052e-11
5.733510666e-11
3.2049545669e-11
3.20495524404e-11
1.89448512347e-11
1.89448547189e-11
3.91664751734e-11
6.35120851504e-11
1.05590300772e-10
3.91664749765e-11
6.35120933905e-11
1.05590301351e-10
6.17073398323e-11
9.79800992191e-11
9.76989973612e-11
6.51591613457e-11
6.17073396504e-11
9.79800997863e-11
9.76989981097e-11
1.02650958377e-10
3.57619419848e-11
3.33688589044e-11
1.02650958609e-10
3.57619418328e-11
4.57674190812e-11
4.70528958396e-11
4.57674198395e-11
4.70528952646e-11
6.13312046918e-11
9.97249685649e-11
3.6335861613e-11
9.6610627524e-11
6.13312043168e-11
9.97249679599e-11
3.633586115e-11
1.74786617374e-11
1.74786613157e-11
4.66307203818e-11
6.10734026874e-11
4.66307195256e-11
6.10734018319e-11
6.61236352101e-11
5.73351084766e-11
6.61236342862e-11
5.73351073702e-11
3.20495527609e-11
3.20495520067e-11
1.89448575018e-11
1.89448555647e-11
3.91664748401e-11
6.35120999314e-11
1.0559030185e-10
3.91664747555e-11
6.35120952791e-11
1.05590301001e-10
6.17073395234e-11
9.79801000301e-11
9.76989981271e-11
6.51591610567e-11
6.1707339423e-11
9.79800996511e-11
9.76989980201e-11
1.02650958265e-10
3.57619416189e-11
3.33688587602e-11
1.02650958227e-10
3.57619415749e-11
4.57674206273e-11
4.70528949609e-11
4.5767419651e-11
4.70528945468e-11
6.13312022173e-11
9.97249661662e-11
3.63358594627e-11
9.66106268068e-11
6.13312033556e-11
9.97249662255e-11
3.63358603345e-11
1.74786610623e-11
1.7478660929e-11
4.66307188028e-11
6.10734007753e-11
4.66307183861e-11
6.10734002271e-11
6.61236330988e-11
5.73351063415e-11
6.61236325042e-11
5.73351058284e-11
3.20495514572e-11
3.20495511997e-11
1.89448505323e-11
1.89448514386e-11
3.91664747189e-11
6.35120833905e-11
1.05590299871e-10
3.91664746996e-11
6.35120852812e-11
1.05590299573e-10
6.17073393993e-11
9.7980099391e-11
9.76989980057e-11
6.51591609772e-11
6.17073393976e-11
9.79800992701e-11
9.76989981532e-11
1.02650958263e-10
3.5761941557e-11
3.33688587455e-11
1.02650958534e-10
3.57619416117e-11
4.57674176227e-11
4.70528940589e-11
4.57674176168e-11
4.70528939768e-11
6.13312036133e-11
9.97249663947e-11
3.63358605152e-11
9.66106280342e-11
6.13312040526e-11
9.97249670249e-11
3.63358607959e-11
1.74786608579e-11
1.74786608383e-11
4.66307181663e-11
6.10733999542e-11
4.66307180934e-11
6.10733998664e-11
6.61236322217e-11
5.73351056263e-11
6.61236321406e-11
5.73351055816e-11
3.20495511029e-11
3.20495510864e-11
1.89448502137e-11
1.89448548924e-11
3.91664747193e-11
6.35120825679e-11
1.05590299576e-10
3.91664747546e-11
6.35120934441e-11
1.05590300549e-10
6.17073394498e-11
9.79800993914e-11
9.76989985764e-11
6.51591610847e-11
6.17073395007e-11
9.79800997186e-11
9.76989989679e-11
1.02650959245e-10
3.57619417839e-11
3.33688587896e-11
1.02650960492e-10
3.57619422235e-11
4.57674173875e-11
4.70528939553e-11
4.5767418955e-11
4.70528942414e-11
6.13312053618e-11
9.97249693706e-11
3.63358616278e-11
9.66106415708e-11
6.13312305669e-11
9.97249794924e-11
3.63358816016e-11
1.74786608351e-11
1.74786608544e-11
4.66307180827e-11
6.10733998572e-11
4.66307181227e-11
6.10733998445e-11
6.61236321408e-11
5.73351056203e-11
6.61236321202e-11
5.73351056713e-11
3.20495511112e-11
3.20495511525e-11
1.89448502106e-11
1.89448617135e-11
3.91664747625e-11
6.35120830374e-11
1.05590300356e-10
3.91664747507e-11
6.35121096709e-11
1.05590302282e-10
6.17073394113e-11
9.79800993981e-11
9.76989972678e-11
6.5159161045e-11
6.17073393787e-11
9.79800997992e-11
9.76989973048e-11
1.02650956444e-10
3.57619410184e-11
3.33688587296e-11
1.0265095678e-10
3.57619411721e-11
4.57674180228e-11
4.70528942142e-11
4.57674218693e-11
4.70528948633e-11
6.13311816502e-11
9.97249555145e-11
3.63358433253e-11
9.66106198534e-11
6.13311942005e-11
9.97249599473e-11
3.63358533422e-11
1.74786608579e-11
1.74786608981e-11
4.66307181367e-11
6.10733998623e-11
4.66307182333e-11
6.10733998755e-11
6.61236320915e-11
5.73351054051e-11
6.61236320757e-11
5.7335105404e-11
3.20495509826e-11
3.20495509889e-11
1.89448555083e-11
1.89448553922e-11
3.9166474704e-11
6.35120954491e-11
1.05590301526e-10
3.91664746642e-11
6.35120948032e-11
1.05590300712e-10
6.17073393797e-11
9.79800997818e-11
9.76989979871e-11
6.51591609383e-11
6.17073393518e-11
9.79800994545e-11
9.76989977778e-11
1.02650958432e-10
3.57619416549e-11
3.33688587296e-11
1.02650957772e-10
3.57619414153e-11
4.57674200524e-11
4.70528946104e-11
4.57674194491e-11
4.70528944037e-11
6.13312122433e-11
9.97249693586e-11
3.63358674075e-11
9.66106238258e-11
6.13311961403e-11
9.97249632379e-11
3.63358545955e-11
1.74786608877e-11
1.74786608684e-11
4.66307182116e-11
6.10733998853e-11
4.66307181616e-11
6.10733998705e-11
6.61236321162e-11
5.73351055268e-11
6.61236321106e-11
5.73351054923e-11
3.20495510626e-11
3.20495510338e-11
1.89448496563e-11
1.89448554505e-11
3.91664746767e-11
6.35120814908e-11
1.05590299927e-10
3.91664747151e-11
6.35120948475e-11
1.05590300589e-10
6.17073394025e-11
9.79800994132e-11
9.76989980835e-11
6.51591610547e-11
6.17073394475e-11
9.79800994187e-11
9.76989976598e-11
1.02650958698e-10
3.57619417121e-11
3.33688584852e-11
1.02650956845e-10
3.57619410436e-11
4.57674175118e-11
4.70528940608e-11
4.57674193626e-11
4.70528943437e-11
6.13312128009e-11
9.97249700611e-11
3.63358677859e-11
9.66106228379e-11
6.13311966634e-11
9.97249624678e-11
3.63358551308e-11
1.74786608457e-11
1.74786608632e-11
4.66307181049e-11
6.10733998352e-11
4.66307181504e-11
6.10733998656e-11
6.61236320915e-11
5.73351055404e-11
6.61236320955e-11
5.73351054658e-11
3.20495510658e-11
3.2049551021e-11
1.8944855578e-11
1.89448493068e-11
3.91664747551e-11
6.35120951516e-11
1.05590300802e-10
3.91664747623e-11
6.35120806754e-11
1.05590299653e-10
6.17073400721e-11
9.79800995943e-11
9.76989987668e-11
6.51591607343e-11
6.17073370936e-11
9.79800984651e-11
9.76989932265e-11
1.02650965108e-10
3.57619443229e-11
3.33688505772e-11
1.02650936407e-10
3.57619335119e-11
4.57674193855e-11
4.70528943399e-11
4.57674173318e-11
4.70528940003e-11
6.13311961607e-11
9.97249623465e-11
3.63358543854e-11
9.66106295439e-11
6.13312119512e-11
9.97249715264e-11
3.63358681597e-11
1.74786608597e-11
1.74786608387e-11
4.66307181369e-11
6.10733998394e-11
4.66307180865e-11
6.10733998432e-11
6.61236320859e-11