/*--------------------------------*- C++ -*----------------------------------*\
  =========                 |
  \\      /  F ield         | OpenFOAM: The Open Source CFD Toolbox
   \\    /   O peration     | Website:  https://openfoam.org
    \\  /    A nd           | Version:  9
     \\/     M anipulation  |
\*---------------------------------------------------------------------------*/
FoamFile
{
    format      ascii;
    class       volScalarField;
    location    "0.400021";
    object      static(p);
}
// * * * * * * * * * * * * * * * * * * * * * * * * * * * * * * * * * * * * * //

dimensions      [1 -1 -2 0 0 0 0];

internalField   nonuniform List<scalar> 
132485
(
0.180077
0.180075
0.180069
0.180077
0.179385
0.179385
0.180068
0.180075
0.179385
0.179386
0.180045
0.180069
0.180068
0.180045
0.180069
0.177256
0.177254
0.177248
0.177256
0.176564
0.176564
0.177247
0.177254
0.176564
0.176565
0.177224
0.177248
0.177247
0.177224
0.177248
0.174435
0.174433
0.174427
0.174435
0.173743
0.173743
0.174426
0.174433
0.173743
0.173744
0.174403
0.174427
0.174426
0.174403
0.174427
0.171614
0.171612
0.171606
0.171614
0.170922
0.170922
0.171605
0.171612
0.170922
0.170923
0.171582
0.171606
0.171605
0.171582
0.171606
0.168793
0.168791
0.168785
0.168793
0.168101
0.168101
0.168784
0.168791
0.168101
0.168102
0.168761
0.168785
0.168784
0.168761
0.168785
0.165972
0.16597
0.165964
0.165972
0.16528
0.16528
0.165963
0.16597
0.16528
0.165281
0.16594
0.165964
0.165963
0.16594
0.165964
0.163151
0.163149
0.163143
0.163151
0.162459
0.16246
0.163142
0.163149
0.16246
0.16246
0.163119
0.163143
0.163142
0.163119
0.163143
0.181521
0.181513
0.181523
0.181523
0.180071
0.180079
0.1787
0.178692
0.18007
0.178702
0.180082
0.180082
0.180087
0.178689
0.178689
0.178684
0.180074
0.180064
0.180044
0.178694
0.178697
0.178706
0.178727
0.18007
0.180047
0.180062
0.178697
0.178701
0.178724
0.178708
0.180082
0.178702
0.178688
0.180071
0.180079
0.1787
0.178692
0.180064
0.180074
0.180044
0.178694
0.178706
0.178697
0.178727
0.180025
0.180046
0.180058
0.178703
0.178746
0.178726
0.178714
0.18007
0.178702
0.180047
0.18007
0.180063
0.178697
0.178724
0.178701
0.178708
0.180055
0.180063
0.180013
0.178726
0.178717
0.178708
0.178758
0.180082
0.178702
0.178688
0.180046
0.180025
0.180058
0.178703
0.178725
0.178746
0.178714
0.180062
0.180055
0.180013
0.178726
0.178708
0.178717
0.178758
0.178702
0.17725
0.177258
0.175879
0.175871
0.177249
0.175881
0.177261
0.177261
0.177266
0.175868
0.175868
0.175863
0.177253
0.177243
0.177223
0.175873
0.175876
0.175885
0.175906
0.177249
0.177226
0.177241
0.175876
0.17588
0.175903
0.175887
0.177261
0.175881
0.175867
0.17725
0.177258
0.175879
0.175871
0.177243
0.177253
0.177223
0.175873
0.175885
0.175876
0.175906
0.177204
0.177225
0.177237
0.175882
0.175925
0.175905
0.175893
0.177249
0.175881
0.177226
0.177249
0.177241
0.175876
0.175903
0.17588
0.175887
0.177234
0.177242
0.177192
0.175905
0.175896
0.175887
0.175937
0.177261
0.175881
0.175867
0.177225
0.177204
0.177237
0.175882
0.175904
0.175925
0.175893
0.177241
0.177234
0.177192
0.175905
0.175887
0.175896
0.175937
0.175881
0.174429
0.174437
0.173058
0.17305
0.174428
0.17306
0.17444
0.17444
0.174445
0.173047
0.173047
0.173042
0.174432
0.174422
0.174402
0.173052
0.173055
0.173064
0.173085
0.174428
0.174405
0.17442
0.173055
0.173059
0.173082
0.173066
0.17444
0.17306
0.173046
0.174429
0.174437
0.173058
0.17305
0.174422
0.174432
0.174402
0.173052
0.173064
0.173055
0.173085
0.174383
0.174404
0.174416
0.173061
0.173104
0.173084
0.173072
0.174428
0.17306
0.174405
0.174428
0.17442
0.173055
0.173082
0.173059
0.173066
0.174413
0.174421
0.174371
0.173084
0.173075
0.173066
0.173116
0.17444
0.17306
0.173046
0.174404
0.174383
0.174416
0.173061
0.173083
0.173104
0.173072
0.17442
0.174413
0.174371
0.173084
0.173066
0.173075
0.173116
0.17306
0.171608
0.171616
0.170237
0.170229
0.171607
0.170239
0.171619
0.171619
0.171624
0.170226
0.170226
0.170221
0.171611
0.171601
0.171581
0.170231
0.170234
0.170243
0.170264
0.171607
0.171584
0.171599
0.170234
0.170238
0.170261
0.170245
0.171619
0.170239
0.170225
0.171608
0.171616
0.170237
0.170229
0.171601
0.171611
0.171581
0.170231
0.170243
0.170234
0.170264
0.171562
0.171583
0.171595
0.17024
0.170283
0.170263
0.170251
0.171607
0.170239
0.171584
0.171607
0.171599
0.170234
0.170261
0.170238
0.170245
0.171592
0.1716
0.17155
0.170263
0.170254
0.170245
0.170295
0.171619
0.170239
0.170225
0.171583
0.171562
0.171595
0.17024
0.170262
0.170283
0.170251
0.171599
0.171592
0.17155
0.170263
0.170245
0.170254
0.170295
0.170239
0.168787
0.168795
0.167416
0.167408
0.168786
0.167418
0.168798
0.168798
0.168803
0.167405
0.167405
0.1674
0.16879
0.16878
0.16876
0.16741
0.167413
0.167422
0.167443
0.168786
0.168763
0.168778
0.167413
0.167417
0.16744
0.167424
0.168798
0.167418
0.167404
0.168787
0.168795
0.167416
0.167408
0.16878
0.16879
0.16876
0.16741
0.167422
0.167413
0.167443
0.168741
0.168762
0.168774
0.167419
0.167462
0.167442
0.16743
0.168786
0.167418
0.168763
0.168786
0.168778
0.167413
0.16744
0.167417
0.167424
0.168771
0.168779
0.168729
0.167442
0.167433
0.167424
0.167474
0.168798
0.167418
0.167404
0.168762
0.168741
0.168774
0.167419
0.167441
0.167462
0.16743
0.168778
0.168771
0.168729
0.167442
0.167424
0.167433
0.167474
0.167418
0.165966
0.165974
0.164595
0.164587
0.165965
0.164597
0.165977
0.165977
0.165982
0.164584
0.164584
0.164579
0.165969
0.165959
0.165939
0.164589
0.164592
0.164601
0.164622
0.165965
0.165942
0.165957
0.164592
0.164596
0.164619
0.164603
0.165977
0.164597
0.164583
0.165966
0.165974
0.164595
0.164587
0.165959
0.165969
0.165939
0.164589
0.164601
0.164592
0.164622
0.16592
0.165941
0.165953
0.164598
0.164641
0.164621
0.164609
0.165965
0.164597
0.165942
0.165965
0.165957
0.164592
0.164619
0.164596
0.164603
0.16595
0.165958
0.165908
0.164621
0.164612
0.164603
0.164653
0.165977
0.164597
0.164583
0.165941
0.16592
0.165953
0.164598
0.16462
0.164641
0.164609
0.165957
0.16595
0.165908
0.164621
0.164603
0.164612
0.164653
0.164597
0.163145
0.163153
0.161774
0.161766
0.163144
0.161776
0.163156
0.163156
0.163161
0.161763
0.161763
0.161758
0.163148
0.163138
0.163118
0.161768
0.161771
0.16178
0.161801
0.163144
0.163121
0.163137
0.161771
0.161775
0.161799
0.161782
0.163156
0.161775
0.161762
0.163145
0.163153
0.161774
0.161766
0.163138
0.163148
0.163118
0.161768
0.16178
0.161771
0.161801
0.163099
0.16312
0.163132
0.161777
0.16182
0.1618
0.161788
0.163144
0.161776
0.163121
0.163144
0.163137
0.161771
0.161799
0.161775
0.161782
0.163129
0.163137
0.163087
0.1618
0.161791
0.161782
0.161832
0.163156
0.161775
0.161762
0.16312
0.163099
0.163132
0.161777
0.161799
0.16182
0.161788
0.163136
0.163129
0.163087
0.1618
0.161782
0.161791
0.161832
0.161776
0.16033
0.160328
0.160323
0.16033
0.159638
0.159638
0.16032
0.160328
0.159638
0.159639
0.160298
0.160323
0.16032
0.160298
0.160322
0.160324
0.160332
0.158953
0.158945
0.160323
0.158955
0.160335
0.160335
0.16034
0.158942
0.158942
0.158937
0.160326
0.160317
0.160297
0.158947
0.15895
0.158959
0.15898
0.160323
0.1603
0.160316
0.15895
0.158954
0.158977
0.158961
0.160336
0.158954
0.158941
0.160324
0.160332
0.158953
0.158945
0.160317
0.160326
0.160297
0.158947
0.158959
0.15895
0.15898
0.160278
0.160298
0.160311
0.158956
0.158999
0.158979
0.158967
0.160323
0.158955
0.1603
0.160323
0.160316
0.15895
0.158977
0.158954
0.158961
0.160308
0.160316
0.160266
0.158979
0.15897
0.158961
0.159011
0.160336
0.158954
0.158941
0.160299
0.160278
0.160311
0.158956
0.158978
0.158999
0.158967
0.160315
0.160308
0.160266
0.158979
0.158961
0.15897
0.159011
0.158955
0.413862
0.413872
0.412512
0.412787
0.413054
0.410821
0.41086
0.410526
0.409778
0.410082
0.410264
0.413999
0.414374
0.414546
0.412349
0.412419
0.412753
0.412919
0.41459
0.41451
0.412391
0.412923
0.412877
0.414035
0.412547
0.412958
0.411701
0.411607
0.414141
0.414335
0.412505
0.412687
0.414454
0.414277
0.412779
0.412682
0.413732
0.41235
0.410803
0.410879
0.411006
0.409315
0.40939
0.40948
0.41086
0.411129
0.411224
0.409348
0.409383
0.409621
0.40973
0.41125
0.411223
0.409456
0.409743
0.409691
0.41094
0.409499
0.410703
0.410415
0.410487
0.409071
0.409201
0.409044
0.409051
0.410217
0.408962
0.40893
0.410766
0.409278
0.410868
0.410953
0.409378
0.409509
0.411028
0.411018
0.409571
0.409552
0.410694
0.409394
0.413598
0.413822
0.413854
0.414131
0.412329
0.412398
0.412569
0.413984
0.413218
0.41368
0.412054
0.412337
0.411881
0.412049
0.414032
0.412363
0.357156
0.357163
0.356467
0.356465
0.357153
0.354365
0.354371
0.353675
0.353674
0.354361
0.351573
0.35158
0.350884
0.350883
0.351569
0.348782
0.348788
0.348092
0.348091
0.348778
0.345991
0.345997
0.345301
0.3453
0.345986
0.343199
0.343205
0.342509
0.342509
0.343195
0.340408
0.340414
0.339717
0.340403
0.357126
0.355812
0.357141
0.357145
0.357127
0.355799
0.355796
0.355814
0.35716
0.357123
0.357148
0.355784
0.355778
0.355821
0.35579
0.357165
0.357161
0.355775
0.355774
0.355776
0.357112
0.357108
0.355819
0.355821
0.357154
0.357154
0.357133
0.355782
0.35578
0.355782
0.355802
0.357075
0.355862
0.357123
0.357109
0.355819
0.355834
0.357107
0.357139
0.355835
0.355801
0.357151
0.355787
0.354334
0.35302
0.354349
0.354353
0.354336
0.353007
0.353004
0.353022
0.354368
0.354331
0.354357
0.352992
0.352987
0.35303
0.352998
0.354374
0.35437
0.352984
0.352983
0.352985
0.354321
0.354317
0.353028
0.35303
0.354362
0.354362
0.354341
0.35299
0.352988
0.35299
0.35301
0.354283
0.353071
0.354331
0.354318
0.353027
0.353042
0.354316
0.354348
0.353043
0.35301
0.35436
0.352995
0.351543
0.350229
0.351558
0.351562
0.351544
0.350216
0.350213
0.350231
0.351577
0.35154
0.351565
0.350201
0.350195
0.350238
0.350207
0.351582
0.351578
0.350192
0.350191
0.350193
0.35153
0.351525
0.350236
0.350239
0.351571
0.35157
0.35155
0.350199
0.350197
0.350199
0.350219
0.351492
0.350279
0.35154
0.351526
0.350235
0.35025
0.351524
0.351556
0.350252
0.350218
0.351568
0.350204
0.348751
0.347437
0.348766
0.34877
0.348753
0.347424
0.347422
0.347439
0.348785
0.348748
0.348774
0.347409
0.347404
0.347447
0.347415
0.34879
0.348787
0.347401
0.3474
0.347402
0.348738
0.348734
0.347445
0.347447
0.348779
0.348779
0.348758
0.347407
0.347405
0.347407
0.347427
0.3487
0.347488
0.348748
0.348734
0.347444
0.347459
0.348733
0.348765
0.34746
0.347427
0.348776
0.347412
0.34596
0.344646
0.345975
0.345979
0.345961
0.344633
0.34463
0.344648
0.345994
0.345957
0.345982
0.344618
0.344612
0.344655
0.344624
0.345999
0.345995
0.344609
0.344608
0.34461
0.345947
0.345942
0.344653
0.344656
0.345988
0.345987
0.345967
0.344616
0.344614
0.344616
0.344636
0.345909
0.344696
0.345957
0.345943
0.344652
0.344667
0.345941
0.345973
0.344669
0.344635
0.345985
0.344621
0.343168
0.341854
0.343183
0.343188
0.34317
0.341841
0.341839
0.341856
0.343202
0.343165
0.343191
0.341827
0.341821
0.341864
0.341833
0.343207
0.343204
0.341818
0.341817
0.341819
0.343155
0.343151
0.341862
0.341864
0.343197
0.343196
0.343176
0.341824
0.341822
0.341824
0.341845
0.343117
0.341905
0.343165
0.343152
0.341861
0.341876
0.34315
0.343182
0.341877
0.341844
0.343194
0.341829
0.340411
0.340374
0.340399
0.339035
0.33903
0.339073
0.339041
0.340416
0.340412
0.339026
0.339025
0.339028
0.340405
0.340404
0.340384
0.339033
0.339031
0.339033
0.339053
0.340358
0.340391
0.339086
0.339052
0.340402
0.339038
0.396325
0.39631
0.395673
0.395567
0.396255
0.393499
0.393494
0.392845
0.392765
0.393457
0.390686
0.390689
0.390026
0.389969
0.390664
0.387882
0.387889
0.387216
0.387175
0.387871
0.385083
0.385092
0.384411
0.384381
0.385079
0.382287
0.382297
0.381611
0.381589
0.382286
0.379493
0.379502
0.378813
0.378797
0.379493
0.3767
0.376709
0.376017
0.376005
0.376699
0.373907
0.373916
0.373222
0.373213
0.373906
0.371115
0.371123
0.370429
0.370422
0.371113
0.368323
0.368331
0.367636
0.367631
0.368321
0.365531
0.365538
0.364843
0.364839
0.365528
0.36274
0.362746
0.362051
0.362048
0.362736
0.359948
0.359955
0.359259
0.359257
0.359944
0.396326
0.39499
0.396337
0.396354
0.396367
0.394974
0.394979
0.395024
0.396333
0.396334
0.396361
0.394933
0.394934
0.395003
0.394977
0.396348
0.396334
0.394908
0.394938
0.394933
0.396257
0.396272
0.394952
0.394968
0.396252
0.396286
0.396264
0.394876
0.394875
0.39491
0.394928
0.396288
0.395065
0.396386
0.396352
0.395058
0.395055
0.39634
0.396369
0.395047
0.395014
0.396336
0.39496
0.393492
0.392163
0.393507
0.393517
0.393523
0.392151
0.392151
0.39219
0.393509
0.393494
0.393525
0.392115
0.392115
0.392173
0.39215
0.393523
0.393514
0.392099
0.39212
0.392119
0.393443
0.393446
0.39214
0.392147
0.393456
0.393489
0.393464
0.392084
0.39208
0.392115
0.39213
0.393457
0.392236
0.393546
0.393517
0.392223
0.392225
0.393509
0.393545
0.392221
0.392192
0.393518
0.392146
0.390673
0.389348
0.39069
0.390696
0.390697
0.389338
0.389337
0.38937
0.390696
0.390672
0.390705
0.389307
0.389307
0.389358
0.389336
0.39071
0.390704
0.389296
0.389312
0.389312
0.390635
0.390632
0.389336
0.389337
0.390663
0.390692
0.390665
0.389291
0.389288
0.389318
0.389332
0.390636
0.389417
0.390716
0.390691
0.389397
0.389403
0.390686
0.390725
0.389401
0.389374
0.390707
0.389337
0.387863
0.386543
0.387882
0.387886
0.387881
0.386533
0.38653
0.386559
0.387891
0.387861
0.387895
0.386506
0.386505
0.386552
0.386529
0.387905
0.3879
0.386498
0.386509
0.38651
0.387834
0.387827
0.386537
0.386536
0.38787
0.387895
0.387868
0.386499
0.386495
0.386521
0.386534
0.387824
0.386607
0.387896
0.387874
0.38658
0.38659
0.38787
0.38791
0.386588
0.386562
0.387901
0.386531
0.38506
0.383742
0.385079
0.385083
0.385074
0.383733
0.38373
0.383755
0.385091
0.385058
0.385091
0.383708
0.383706
0.383752
0.383727
0.385104
0.385099
0.383702
0.38371
0.383711
0.385036
0.385028
0.383741
0.383739
0.385078
0.385097
0.38507
0.383707
0.383703
0.383723
0.383737
0.385018
0.383802
0.385083
0.385064
0.383771
0.383782
0.38506
0.3851
0.383782
0.383753
0.385098
0.383729
0.382262
0.380945
0.38228
0.382284
0.382272
0.380935
0.380932
0.380955
0.382294
0.382259
0.38229
0.380913
0.380911
0.380955
0.380928
0.382306
0.382301
0.380908
0.380912
0.380914
0.382241
0.382233
0.380947
0.380945
0.382285
0.3823
0.382273
0.380914
0.38091
0.380926
0.38094
0.382217
0.381002
0.382276
0.38226
0.380966
0.380979
0.382256
0.382293
0.380979
0.380949
0.382297
0.380929
0.379466
0.37815
0.379484
0.379487
0.379474
0.37814
0.378136
0.378158
0.379499
0.379464
0.379492
0.37812
0.378116
0.37816
0.378132
0.37951
0.379505
0.378114
0.378117
0.378118
0.379448
0.37944
0.378154
0.378153
0.379492
0.379503
0.379477
0.378121
0.378117
0.378129
0.378145
0.379419
0.378205
0.379474
0.379459
0.378166
0.37818
0.379456
0.379491
0.37818
0.378149
0.379499
0.378132
0.376672
0.375356
0.376689
0.376692
0.376677
0.375345
0.375342
0.375362
0.376705
0.376669
0.376697
0.375327
0.375323
0.375366
0.375337
0.376714
0.37671
0.37532
0.375322
0.375324
0.376655
0.376648
0.375361
0.375361
0.376699
0.376707
0.376682
0.375328
0.375324
0.375333
0.37535
0.376623
0.375409
0.376676
0.376661
0.375369
0.375383
0.376658
0.376693
0.375384
0.375352
0.376702
0.375336
0.373878
0.372563
0.373895
0.373899
0.373883
0.372552
0.372549
0.372568
0.373912
0.373876
0.373903
0.372534
0.37253
0.372573
0.372543
0.37392
0.373916
0.372527
0.372528
0.37253
0.373863
0.373857
0.372569
0.37257
0.373906
0.373912
0.373888
0.372535
0.372532
0.372539
0.372556
0.373829
0.372615
0.37388
0.373865
0.372574
0.372588
0.373863
0.373896
0.372589
0.372556
0.373907
0.372542
0.371086
0.369771
0.371102
0.371105
0.371089
0.369759
0.369756
0.369775
0.371119
0.371083
0.371109
0.369742
0.369737
0.369781
0.36975
0.371127
0.371122
0.369735
0.369735
0.369737
0.371071
0.371065
0.369777
0.369779
0.371114
0.371117
0.371094
0.369742
0.369739
0.369745
0.369763
0.371035
0.369822
0.371085
0.371071
0.36978
0.369795
0.371069
0.371102
0.369795
0.369762
0.371113
0.369748
0.368293
0.366979
0.368309
0.368313
0.368296
0.366967
0.366964
0.366982
0.368327
0.36829
0.368317
0.36695
0.366945
0.366989
0.366958
0.368334
0.36833
0.366943
0.366942
0.366944
0.368279
0.368274
0.366985
0.366987
0.368322
0.368324
0.368302
0.36695
0.366947
0.366951
0.36697
0.368243
0.36703
0.368292
0.368278
0.366987
0.367002
0.368275
0.368308
0.367002
0.366969
0.36832
0.366955
0.365501
0.364187
0.365517
0.365521
0.365503
0.364174
0.364171
0.36419
0.365535
0.365498
0.365524
0.364159
0.364153
0.364197
0.364165
0.365541
0.365537
0.36415
0.36415
0.364152
0.365487
0.365482
0.364194
0.364196
0.365529
0.365531
0.365509
0.364158
0.364155
0.364158
0.364178
0.36545
0.364238
0.365499
0.365485
0.364194
0.364209
0.365483
0.365515
0.36421
0.364177
0.365527
0.364163
0.362709
0.361395
0.362725
0.362729
0.362711
0.361382
0.361379
0.361398
0.362743
0.362706
0.362732
0.361367
0.361361
0.361405
0.361374
0.362749
0.362745
0.361359
0.361358
0.36136
0.362696
0.362691
0.361402
0.361404
0.362737
0.362738
0.362717
0.361366
0.361363
0.361366
0.361386
0.362658
0.361446
0.362707
0.362693
0.361402
0.361417
0.362691
0.362723
0.361418
0.361385
0.362735
0.361371
0.359917
0.358603
0.359933
0.359937
0.359919
0.35859
0.358588
0.358606
0.359951
0.359915
0.35994
0.358575
0.35857
0.358613
0.358582
0.359957
0.359953
0.358567
0.358566
0.358568
0.359904
0.3599
0.358611
0.358613
0.359946
0.359946
0.359925
0.358574
0.358571
0.358574
0.358594
0.359867
0.358654
0.359915
0.359901
0.35861
0.358625
0.359899
0.359931
0.358626
0.358593
0.359943
0.358579
0.399169
0.399141
0.398511
0.398369
0.399062
0.399179
0.397833
0.399185
0.399216
0.399234
0.397813
0.397828
0.397878
0.399175
0.3992
0.39922
0.397768
0.397765
0.397853
0.397824
0.399192
0.39917
0.397731
0.397772
0.39776
0.399076
0.399103
0.39777
0.397797
0.399052
0.399086
0.399065
0.397677
0.397673
0.397708
0.39773
0.399127
0.397903
0.399238
0.399198
0.397905
0.397895
0.39918
0.399197
0.397883
0.397839
0.399159
0.39778
0.407876
0.407824
0.407116
0.406845
0.407669
0.404942
0.404891
0.404204
0.403971
0.404744
0.40204
0.401998
0.401351
0.401166
0.401887
0.407913
0.406516
0.407913
0.408087
0.408114
0.406499
0.406611
0.406659
0.407861
0.408089
0.408053
0.40643
0.406411
0.406645
0.40658
0.407963
0.407885
0.406361
0.406471
0.406412
0.407491
0.407492
0.406204
0.406225
0.40759
0.40757
0.40755
0.406226
0.406159
0.406163
0.406176
0.407735
0.406487
0.407953
0.407923
0.406559
0.406547
0.40787
0.407818
0.406502
0.406398
0.407759
0.406328
0.404959
0.403587
0.404968
0.40506
0.405084
0.403566
0.403626
0.403678
0.404937
0.405057
0.40505
0.403512
0.403498
0.403657
0.403611
0.404985
0.404931
0.403447
0.403524
0.403485
0.404702
0.404731
0.403405
0.403443
0.404704
0.40471
0.404692
0.403337
0.403297
0.403324
0.403337
0.404838
0.40361
0.405
0.404956
0.403641
0.403622
0.404918
0.404893
0.403591
0.403513
0.40485
0.403449
0.402053
0.400696
0.402058
0.402112
0.402135
0.400673
0.400704
0.400759
0.402041
0.402103
0.402112
0.400625
0.400617
0.400733
0.400698
0.402067
0.402031
0.400574
0.40063
0.400607
0.401894
0.401928
0.40059
0.400627
0.401863
0.40189
0.401869
0.400495
0.400475
0.40051
0.400531
0.401975
0.400752
0.402105
0.40206
0.400763
0.400747
0.402034
0.402032
0.400727
0.40067
0.401992
0.400607
0.339718
0.336926
0.340377
0.339063
0.340392
0.340396
0.340378
0.33905
0.339047
0.339065
0.340364
0.34036
0.339071
0.339073
0.340326
0.339114
0.340374
0.34036
0.33907
0.339085
0.337586
0.336271
0.337601
0.337605
0.337587
0.336258
0.336256
0.336274
0.337573
0.337568
0.336279
0.336282
0.337535
0.336322
0.337582
0.337569
0.336278
0.336293
0.337567
0.337599
0.337616
0.337622
0.336926
0.337612
0.334825
0.334831
0.334135
0.334135
0.334821
0.33762
0.337583
0.337608
0.336244
0.336238
0.336281
0.33625
0.337625
0.337621
0.336235
0.336234
0.336236
0.337614
0.337613
0.337593
0.336242
0.33624
0.336241
0.336262
0.336295
0.336261
0.337611
0.336247
0.334794
0.33348
0.334809
0.334813
0.334795
0.333467
0.333464
0.333482
0.334828
0.334791
0.334817
0.333452
0.333447
0.33349
0.333458
0.334833
0.33483
0.333444
0.333442
0.333445
0.334781
0.334777
0.333488
0.33349
0.334822
0.334822
0.334801
0.33345
0.333448
0.33345
0.33347
0.334743
0.333531
0.334791
0.334777
0.333487
0.333502
0.334776
0.334808
0.333503
0.33347
0.334819
0.333455
0.0728785
0.0728767
0.0728709
0.0721874
0.0721872
0.0728696
0.0721871
0.0721873
0.0728468
0.0728692
0.0728468
0.0728705
0.0700574
0.0700556
0.0700499
0.0700575
0.0693664
0.0693662
0.0700486
0.0700556
0.0693663
0.0693663
0.0700258
0.07005
0.0700487
0.0700257
0.0700495
0.0672364
0.0672346
0.0672289
0.0672366
0.0665452
0.0665452
0.0672276
0.0672345
0.0665451
0.0665453
0.0672048
0.0644155
0.0644137
0.0644081
0.0728728
0.0728811
0.0715018
0.0714947
0.0728715
0.0715034
0.0728763
0.0728664
0.0728459
0.0714961
0.0714999
0.0715083
0.0715287
0.0728719
0.0728486
0.0728643
0.0714982
0.0715029
0.071526
0.0715098
0.0728841
0.0715037
0.0714902
0.0728271
0.0728473
0.0728594
0.0715045
0.0715474
0.0715273
0.0715159
0.0728564
0.0728647
0.0728149
0.0715277
0.0715186
0.0715093
0.0715598
0.0728474
0.072827
0.0728594
0.0715043
0.0715272
0.0715473
0.0715159
0.0728643
0.0728564
0.0728146
0.0715277
0.0715098
0.0715186
0.07156
0.0715037
0.0700518
0.0700599
0.0686808
0.0686734
0.0700505
0.0686824
0.0700629
0.0700629
0.0700674
0.0686698
0.0686698
0.068665
0.070055
0.0700449
0.0700248
0.0686751
0.0686784
0.068687
0.0687077
0.0700509
0.0700276
0.0700433
0.0686773
0.0686819
0.068705
0.0686888
0.0700631
0.0686827
0.0686692
0.0700518
0.0700599
0.0686809
0.0686733
0.070045
0.070055
0.0700249
0.0686752
0.0686872
0.0686784
0.0687077
0.0700061
0.0700263
0.0700384
0.0686835
0.0687264
0.0687064
0.0686949
0.0700505
0.0686825
0.0700278
0.0700506
0.0700433
0.0686776
0.0687053
0.0686816
0.0686889
0.0700354
0.0700437
0.0699939
0.0687067
0.0686976
0.0686883
0.0687388
0.0700631
0.0686822
0.068669
0.0700264
0.0700062
0.0700384
0.068684
0.0687063
0.0687266
0.0686949
0.0700433
0.0700354
0.0699936
0.0687068
0.0686888
0.0686976
0.0687391
0.0686827
0.0672307
0.0672388
0.0658598
0.0658524
0.0672295
0.0658615
0.0672418
0.0672418
0.0672464
0.0658487
0.0658487
0.0658439
0.0672338
0.0672238
0.0672039
0.0658541
0.0658574
0.0658663
0.0658871
0.0672299
0.0672066
0.0672223
0.0658564
0.0658608
0.0658841
0.0658679
0.0672421
0.0658618
0.0658482
0.0672308
0.0672386
0.0658597
0.0658521
0.067224
0.0672336
0.0672036
0.0658542
0.0658658
0.0658571
0.0658862
0.0671851
0.0672053
0.0672174
0.0658624
0.0659054
0.0658853
0.0658739
0.0672294
0.0658613
0.0672062
0.0672303
0.0672224
0.0658562
0.0658837
0.0658612
0.0658675
0.0672144
0.0672227
0.0671729
0.0658857
0.0658766
0.0658673
0.0659178
0.0644098
0.0644178
0.0630387
0.0630312
0.0644085
0.0630405
0.0644208
0.0644207
0.0644254
0.0630277
0.0630276
0.0630229
0.0644128
0.0644028
0.064383
0.0630332
0.0630363
0.0630448
0.0630655
0.0644086
0.0643857
0.0644014
0.0630356
0.0630396
0.0630632
0.0630469
0.0644211
0.0630402
0.063027
0.0672296
0.0672272
0.0672047
0.0672285
0.0644154
0.0637242
0.0637243
0.0644066
0.0644135
0.0637242
0.0637243
0.0643838
0.0644077
0.0644066
0.0643837
0.0644075
0.0615946
0.0615925
0.0615943
0.0615926
0.0615868
0.0615856
0.0615627
0.0615865
0.0672424
0.0658614
0.0658481
0.0672054
0.067185
0.0672174
0.0658623
0.0658852
0.0659053
0.0658739
0.0672223
0.0672144
0.0671726
0.0658857
0.0658677
0.0658766
0.065918
0.0658617
0.0644097
0.0644176
0.0630387
0.0630312
0.0644029
0.0644126
0.0643827
0.063033
0.0630452
0.0630362
0.0630659
0.0643642
0.0643843
0.0643963
0.063042
0.0630846
0.0630644
0.0630529
0.0644084
0.0630404
0.0643856
0.0644089
0.0644011
0.0630353
0.063063
0.0630398
0.0630467
0.0643934
0.0644017
0.0643519
0.0630647
0.0630556
0.0630463
0.0630968
0.064421
0.0630407
0.0630272
0.0643844
0.0643641
0.0643963
0.0630414
0.0630642
0.0630844
0.0630528
0.0644012
0.0643934
0.0643516
0.0630647
0.0630467
0.0630556
0.063097
0.0630407
0.0615888
0.0615966
0.0615874
0.0615997
0.0615997
0.0616043
0.0615915
0.061582
0.0615615
0.0615641
0.0615886
0.0615968
0.0615816
0.0615917
0.061562
0.0615875
0.0615646
0.0615878
0.0615803
0.0616001
0.0615634
0.0615431
0.0615753
0.0615802
0.0615724
0.0615306
0.157509
0.157507
0.157502
0.157509
0.156817
0.156817
0.157499
0.157507
0.156817
0.156817
0.157477
0.157502
0.157499
0.157477
0.157501
0.154688
0.154686
0.15468
0.154688
0.153996
0.153996
0.154679
0.154686
0.153996
0.153996
0.154656
0.15468
0.154679
0.154656
0.15468
0.151867
0.151865
0.151859
0.151867
0.151175
0.151175
0.151858
0.151865
0.151175
0.151175
0.151835
0.151859
0.151858
0.151835
0.151859
0.149046
0.149044
0.149038
0.149046
0.148354
0.148354
0.149037
0.149044
0.148354
0.148355
0.149014
0.149038
0.149037
0.149014
0.149038
0.157503
0.157511
0.156132
0.156125
0.157502
0.156133
0.157514
0.157514
0.157519
0.156121
0.156121
0.156116
0.157506
0.157497
0.157476
0.156126
0.15613
0.156138
0.156159
0.157503
0.157478
0.157494
0.156128
0.156133
0.156156
0.15614
0.157515
0.156134
0.15612
0.157503
0.157511
0.156132
0.156125
0.157497
0.157506
0.157476
0.156126
0.156138
0.15613
0.156159
0.157457
0.157477
0.15749
0.156134
0.156177
0.156158
0.156146
0.157502
0.156133
0.157478
0.157503
0.157494
0.156128
0.156156
0.156133
0.15614
0.157487
0.157495
0.157445
0.156158
0.156149
0.15614
0.15619
0.157515
0.156134
0.15612
0.157478
0.157457
0.15749
0.156134
0.156157
0.156177
0.156146
0.157494
0.157487
0.157445
0.156158
0.15614
0.156149
0.15619
0.156134
0.154682
0.15469
0.153311
0.153303
0.154681
0.153313
0.154693
0.154693
0.154698
0.1533
0.1533
0.153295
0.154685
0.154675
0.154655
0.153305
0.153308
0.153317
0.153338
0.154681
0.154658
0.154673
0.153307
0.153312
0.153335
0.153319
0.154693
0.153313
0.153299
0.154682
0.15469
0.153311
0.153303
0.154675
0.154685
0.154655
0.153305
0.153317
0.153308
0.153338
0.154636
0.154656
0.154669
0.153314
0.153357
0.153336
0.153325
0.154681
0.153313
0.154658
0.154681
0.154673
0.153307
0.153335
0.153312
0.153319
0.154666
0.154674
0.154624
0.153337
0.153328
0.153318
0.153369
0.154693
0.153313
0.153299
0.154657
0.154636
0.154669
0.153314
0.153336
0.153357
0.153325
0.154673
0.154666
0.154624
0.153337
0.153319
0.153328
0.153369
0.153313
0.151861
0.151869
0.15049
0.150482
0.15186
0.150492
0.151872
0.151872
0.151877
0.150479
0.150479
0.150474
0.151864
0.151854
0.151834
0.150484
0.150487
0.150496
0.150517
0.15186
0.151837
0.151852
0.150487
0.150491
0.150514
0.150498
0.151872
0.150492
0.150478
0.151861
0.151869
0.15049
0.150482
0.151854
0.151864
0.151834
0.150484
0.150496
0.150487
0.150517
0.151815
0.151835
0.151848
0.150493
0.150536
0.150515
0.150504
0.15186
0.150492
0.151837
0.15186
0.151852
0.150487
0.150514
0.150491
0.150498
0.151845
0.151853
0.151803
0.150516
0.150507
0.150497
0.150548
0.151872
0.150492
0.150478
0.151836
0.151815
0.151848
0.150493
0.150515
0.150536
0.150504
0.151852
0.151845
0.151803
0.150516
0.150498
0.150507
0.150548
0.150492
0.14904
0.149048
0.147669
0.147662
0.149039
0.147671
0.149051
0.149051
0.149056
0.147658
0.147658
0.147653
0.149043
0.149033
0.149013
0.147663
0.147666
0.147675
0.147696
0.149039
0.149016
0.149032
0.147666
0.147669
0.147694
0.147677
0.149051
0.147671
0.147657
0.14904
0.149048
0.147669
0.147661
0.149033
0.149042
0.149013
0.147663
0.147675
0.147666
0.147696
0.148994
0.149014
0.149027
0.147672
0.147715
0.147695
0.147683
0.149039
0.147671
0.149016
0.149039
0.149032
0.147666
0.147693
0.14767
0.147677
0.149024
0.149032
0.148982
0.147695
0.147686
0.147677
0.147727
0.149051
0.14767
0.147657
0.149015
0.148994
0.149027
0.147672
0.147694
0.147715
0.147683
0.149031
0.149024
0.148982
0.147695
0.147677
0.147686
0.147727
0.147671
0.146219
0.146228
0.144848
0.14484
0.146218
0.144849
0.146225
0.146223
0.146217
0.146225
0.145533
0.145533
0.146216
0.146223
0.145533
0.145533
0.146193
0.146218
0.146215
0.146193
0.146217
0.143404
0.143402
0.143396
0.143404
0.142712
0.142712
0.143395
0.143402
0.142712
0.142712
0.143372
0.143396
0.143395
0.143372
0.143396
0.140583
0.140581
0.140575
0.140583
0.139891
0.139891
0.140574
0.140581
0.139891
0.139891
0.140551
0.140575
0.140574
0.140551
0.140575
0.137762
0.13776
0.137754
0.137762
0.13707
0.13707
0.137753
0.13776
0.13707
0.13707
0.13773
0.137754
0.137753
0.13773
0.137754
0.134249
0.134931
0.134249
0.134249
0.134909
0.134931
0.134909
0.134933
0.14623
0.14623
0.146235
0.144837
0.144837
0.144832
0.146223
0.146212
0.146192
0.144842
0.144845
0.144854
0.144875
0.146218
0.146195
0.146211
0.144844
0.14485
0.144872
0.144856
0.14623
0.14485
0.144837
0.146219
0.146227
0.144848
0.144841
0.146213
0.146222
0.146192
0.144842
0.144854
0.144846
0.144875
0.146173
0.146194
0.146206
0.14485
0.144893
0.144873
0.144862
0.146218
0.144849
0.146194
0.146219
0.146211
0.144844
0.144872
0.144849
0.144856
0.146203
0.146211
0.146161
0.144874
0.144865
0.144855
0.144906
0.146231
0.14485
0.144836
0.146194
0.146173
0.146206
0.14485
0.144873
0.144893
0.144862
0.14621
0.146203
0.146161
0.144874
0.144856
0.144865
0.144906
0.14485
0.143398
0.143406
0.142027
0.142019
0.143397
0.142029
0.143409
0.143409
0.143413
0.142016
0.142016
0.142011
0.1434
0.143391
0.143371
0.142021
0.142024
0.142033
0.142054
0.143397
0.143374
0.143389
0.142023
0.142028
0.142051
0.142035
0.143409
0.142029
0.142015
0.143398
0.143406
0.142027
0.142019
0.143391
0.143401
0.143371
0.142021
0.142033
0.142024
0.142054
0.143352
0.143372
0.143384
0.14203
0.142073
0.142052
0.142041
0.143397
0.142029
0.143374
0.143397
0.143389
0.142023
0.142051
0.142028
0.142035
0.143381
0.14339
0.14334
0.142053
0.142044
0.142034
0.142085
0.143409
0.142029
0.142015
0.143373
0.143352
0.143384
0.14203
0.142052
0.142073
0.142041
0.143389
0.143382
0.14334
0.142053
0.142035
0.142044
0.142085
0.142029
0.140577
0.140585
0.139206
0.139198
0.140576
0.139208
0.140588
0.140588
0.140592
0.139195
0.139195
0.13919
0.14058
0.14057
0.14055
0.1392
0.139203
0.139212
0.139233
0.140576
0.140553
0.140568
0.139203
0.139207
0.13923
0.139214
0.140588
0.139208
0.139194
0.140577
0.140585
0.139206
0.139198
0.14057
0.14058
0.14055
0.1392
0.139212
0.139203
0.139233
0.140531
0.140551
0.140563
0.139209
0.139252
0.139231
0.13922
0.140576
0.139208
0.140553
0.140576
0.140568
0.139203
0.13923
0.139207
0.139214
0.14056
0.140569
0.140519
0.139232
0.139223
0.139213
0.139264
0.140588
0.139208
0.139194
0.140552
0.140531
0.140563
0.139209
0.139231
0.139252
0.13922
0.140568
0.140561
0.140519
0.139232
0.139214
0.139223
0.139264
0.139208
0.137756
0.137764
0.136385
0.136377
0.137755
0.136387
0.137767
0.137767
0.137771