/*--------------------------------*- C++ -*----------------------------------*\
  =========                 |
  \\      /  F ield         | OpenFOAM: The Open Source CFD Toolbox
   \\    /   O peration     | Website:  https://openfoam.org
    \\  /    A nd           | Version:  9
     \\/     M anipulation  |
\*---------------------------------------------------------------------------*/
FoamFile
{
    format      ascii;
    class       volScalarField;
    location    "0";
    object      Cz;
}
// * * * * * * * * * * * * * * * * * * * * * * * * * * * * * * * * * * * * * //

dimensions      [0 1 0 0 0 0 0];

internalField   nonuniform List<scalar> 
132485
(
0.00749999
0.00749997
0.0075
0.00749999
0.00766667
0.00766667
0.00749997
0.00749997
0.00766667
0.00766667
0.00749982
0.0075
0.00749997
0.00749982
0.00749999
0.00816666
0.00816663
0.00816666
0.00816666
0.00833333
0.00833333
0.00816664
0.00816663
0.00833333
0.00833333
0.00816649
0.00816666
0.00816664
0.00816648
0.00816666
0.00883332
0.0088333
0.00883333
0.00883332
0.009
0.009
0.0088333
0.0088333
0.009
0.009
0.00883315
0.00883333
0.0088333
0.00883315
0.00883333
0.00949999
0.00949997
0.0095
0.00949999
0.00966667
0.00966667
0.00949997
0.00949997
0.00966667
0.00966667
0.00949982
0.0095
0.00949997
0.00949982
0.00949999
0.0101667
0.0101666
0.0101667
0.0101667
0.0103333
0.0103333
0.0101666
0.0101666
0.0103333
0.0103333
0.0101665
0.0101667
0.0101666
0.0101665
0.0101667
0.0108333
0.0108333
0.0108333
0.0108333
0.011
0.011
0.0108333
0.0108333
0.011
0.011
0.0108332
0.0108333
0.0108333
0.0108331
0.0108333
0.0115
0.0115
0.0115
0.0115
0.0116667
0.0116667
0.0115
0.0115
0.0116667
0.0116667
0.0114998
0.0115
0.0115
0.0114998
0.0115
0.00716667
0.00716667
0.00716667
0.00716667
0.0075
0.0075
0.00783334
0.00783334
0.00749999
0.00783334
0.0075
0.0075
0.00749999
0.00783334
0.00783334
0.00783334
0.00749998
0.00749997
0.00749977
0.00783334
0.00783335
0.00783336
0.00783356
0.00749999
0.00749973
0.00749997
0.00783337
0.00783334
0.00783361
0.00783337
0.00749999
0.00783334
0.00783334
0.0075
0.0075
0.00783334
0.00783334
0.00749997
0.00749998
0.00749977
0.00783334
0.00783336
0.00783335
0.00783356
0.00749999
0.00749971
0.00749996
0.00783336
0.00783335
0.00783363
0.00783337
0.00749999
0.00783334
0.00749973
0.00749999
0.00749997
0.00783337
0.00783361
0.00783334
0.00783337
0.00749997
0.00749998
0.00749999
0.00783351
0.00783336
0.00783335
0.00783334
0.00749999
0.00783334
0.00783334
0.00749971
0.00749999
0.00749996
0.00783336
0.00783362
0.00783335
0.00783337
0.00749998
0.00749997
0.00749999
0.00783352
0.00783335
0.00783336
0.00783334
0.00783334
0.00816666
0.00816666
0.0085
0.0085
0.00816666
0.00850001
0.00816666
0.00816666
0.00816666
0.0085
0.0085
0.00850001
0.00816665
0.00816664
0.00816644
0.00850001
0.00850002
0.00850003
0.00850023
0.00816666
0.00816639
0.00816663
0.00850003
0.00850001
0.00850027
0.00850003
0.00816666
0.0085
0.00850001
0.00816666
0.00816666
0.0085
0.0085
0.00816664
0.00816665
0.00816644
0.00850001
0.00850003
0.00850002
0.00850023
0.00816665
0.00816637
0.00816663
0.00850003
0.00850001
0.00850029
0.00850004
0.00816666
0.00850001
0.00816639
0.00816666
0.00816663
0.00850003
0.00850027
0.00850001
0.00850003
0.00816664
0.00816665
0.00816666
0.00850018
0.00850003
0.00850002
0.00850001
0.00816666
0.0085
0.00850001
0.00816638
0.00816665
0.00816663
0.00850003
0.00850029
0.00850001
0.00850004
0.00816665
0.00816664
0.00816666
0.00850018
0.00850002
0.00850003
0.00850001
0.00850001
0.00883333
0.00883333
0.00916667
0.00916667
0.00883333
0.00916667
0.00883333
0.00883333
0.00883333
0.00916667
0.00916667
0.00916667
0.00883331
0.0088333
0.0088331
0.00916668
0.00916669
0.0091667
0.0091669
0.00883333
0.00883306
0.0088333
0.0091667
0.00916667
0.00916694
0.0091667
0.00883333
0.00916667
0.00916667
0.00883333
0.00883333
0.00916667
0.00916667
0.0088333
0.00883331
0.0088331
0.00916668
0.0091667
0.00916669
0.0091669
0.00883332
0.00883304
0.0088333
0.0091667
0.00916668
0.00916696
0.0091667
0.00883333
0.00916667
0.00883306
0.00883333
0.0088333
0.0091667
0.00916694
0.00916667
0.0091667
0.00883331
0.00883332
0.00883332
0.00916685
0.00916669
0.00916668
0.00916668
0.00883333
0.00916667
0.00916667
0.00883304
0.00883332
0.0088333
0.0091667
0.00916696
0.00916668
0.0091667
0.00883332
0.00883331
0.00883332
0.00916685
0.00916668
0.00916669
0.00916668
0.00916667
0.0095
0.0095
0.00983334
0.00983334
0.00949999
0.00983334
0.0095
0.0095
0.00949999
0.00983334
0.00983334
0.00983334
0.00949998
0.00949997
0.00949977
0.00983334
0.00983335
0.00983336
0.00983356
0.00949999
0.00949973
0.00949997
0.00983337
0.00983334
0.00983361
0.00983337
0.00949999
0.00983334
0.00983334
0.0095
0.0095
0.00983334
0.00983334
0.00949997
0.00949998
0.00949977
0.00983334
0.00983336
0.00983335
0.00983356
0.00949999
0.00949971
0.00949996
0.00983336
0.00983335
0.00983363
0.00983337
0.00949999
0.00983334
0.00949973
0.00949999
0.00949997
0.00983337
0.00983361
0.00983334
0.00983337
0.00949997
0.00949998
0.00949999
0.00983351
0.00983336
0.00983335
0.00983334
0.00949999
0.00983334
0.00983334
0.00949971
0.00949999
0.00949996
0.00983336
0.00983362
0.00983335
0.00983337
0.00949998
0.00949997
0.00949999
0.00983352
0.00983335
0.00983336
0.00983334
0.00983334
0.0101667
0.0101667
0.0105
0.0105
0.0101667
0.0105
0.0101667
0.0101667
0.0101667
0.0105
0.0105
0.0105
0.0101666
0.0101666
0.0101664
0.0105
0.0105
0.0105
0.0105002
0.0101667
0.0101664
0.0101666
0.0105
0.0105
0.0105003
0.0105
0.0101667
0.0105
0.0105
0.0101667
0.0101667
0.0105
0.0105
0.0101666
0.0101666
0.0101664
0.0105
0.0105
0.0105
0.0105002
0.0101667
0.0101664
0.0101666
0.0105
0.0105
0.0105003
0.0105
0.0101667
0.0105
0.0101664
0.0101667
0.0101666
0.0105
0.0105003
0.0105
0.0105
0.0101666
0.0101667
0.0101667
0.0105002
0.0105
0.0105
0.0105
0.0101667
0.0105
0.0105
0.0101664
0.0101667
0.0101666
0.0105
0.0105003
0.0105
0.0105
0.0101666
0.0101666
0.0101667
0.0105002
0.0105
0.0105
0.0105
0.0105
0.0108333
0.0108333
0.0111667
0.0111667
0.0108333
0.0111667
0.0108333
0.0108333
0.0108333
0.0111667
0.0111667
0.0111667
0.0108333
0.0108333
0.0108331
0.0111667
0.0111667
0.0111667
0.0111669
0.0108333
0.0108331
0.0108333
0.0111667
0.0111667
0.0111669
0.0111667
0.0108333
0.0111667
0.0111667
0.0108333
0.0108333
0.0111667
0.0111667
0.0108333
0.0108333
0.0108331
0.0111667
0.0111667
0.0111667
0.0111669
0.0108333
0.010833
0.0108333
0.0111667
0.0111667
0.011167
0.0111667
0.0108333
0.0111667
0.0108331
0.0108333
0.0108333
0.0111667
0.0111669
0.0111667
0.0111667
0.0108333
0.0108333
0.0108333
0.0111668
0.0111667
0.0111667
0.0111667
0.0108333
0.0111667
0.0111667
0.010833
0.0108333
0.0108333
0.0111667
0.011167
0.0111667
0.0111667
0.0108333
0.0108333
0.0108333
0.0111669
0.0111667
0.0111667
0.0111667
0.0111667
0.0115
0.0115
0.0118333
0.0118333
0.0115
0.0118333
0.0115
0.0115
0.0115
0.0118333
0.0118333
0.0118333
0.0115
0.0115
0.0114998
0.0118333
0.0118334
0.0118334
0.0118336
0.0115
0.0114997
0.0115
0.0118334
0.0118334
0.0118336
0.0118334
0.0115
0.0118333
0.0118333
0.0115
0.0115
0.0118333
0.0118333
0.0115
0.0115
0.0114998
0.0118333
0.0118334
0.0118334
0.0118336
0.0115
0.0114997
0.0115
0.0118334
0.0118333
0.0118336
0.0118334
0.0115
0.0118333
0.0114997
0.0115
0.0115
0.0118334
0.0118336
0.0118334
0.0118334
0.0115
0.0115
0.0115
0.0118335
0.0118334
0.0118333
0.0118333
0.0115
0.0118333
0.0118333
0.0114997
0.0115
0.0115
0.0118334
0.0118336
0.0118333
0.0118334
0.0115
0.0115
0.0115
0.0118335
0.0118334
0.0118334
0.0118333
0.0118333
0.0121667
0.0121666
0.0121667
0.0121667
0.0123333
0.0123333
0.0121666
0.0121666
0.0123333
0.0123333
0.0121665
0.0121667
0.0121666
0.0121665
0.0121667
0.0121667
0.0121667
0.0125
0.0125
0.0121667
0.0125
0.0121667
0.0121667
0.0121667
0.0125
0.0125
0.0125
0.0121667
0.0121666
0.0121664
0.0125
0.0125
0.0125
0.0125002
0.0121666
0.0121664
0.0121666
0.0125
0.0125
0.0125003
0.0125
0.0121667
0.0125
0.0125
0.0121667
0.0121667
0.0125
0.0125
0.0121666
0.0121667
0.0121664
0.0125
0.0125
0.0125
0.0125002
0.0121667
0.0121664
0.0121666
0.0125
0.0125
0.0125003
0.0125
0.0121667
0.0125
0.0121664
0.0121666
0.0121666
0.0125
0.0125003
0.0125
0.0125
0.0121666
0.0121667
0.0121667
0.0125002
0.0125
0.0125
0.0125
0.0121667
0.0125
0.0125
0.0121664
0.0121667
0.0121666
0.0125
0.0125003
0.0125
0.0125
0.0121666
0.0121666
0.0121667
0.0125002
0.0125
0.0125
0.0125
0.0125
-0.0485008
-0.0485016
-0.0483332
-0.0483341
-0.0485012
-0.0478336
-0.0478341
-0.0478339
-0.0476675
-0.0476675
-0.0478338
-0.0485015
-0.0485011
-0.048502
-0.0481672
-0.0481675
-0.0481672
-0.0481667
-0.0485019
-0.0485011
-0.0481676
-0.048167
-0.0481677
-0.0485008
-0.0481675
-0.048502
-0.0481677
-0.0481682
-0.0485016
-0.0485026
-0.0481691
-0.0481693
-0.0485027
-0.0485026
-0.0481695
-0.0481696
-0.0485029
-0.048169
-0.0478335
-0.0478337
-0.0478337
-0.0475
-0.0475002
-0.0475001
-0.0478339
-0.0478338
-0.0478348
-0.0475001
-0.0475
-0.0475001
-0.0474993
-0.0478348
-0.047834
-0.0475
-0.0474995
-0.0475001
-0.0478338
-0.0475001
-0.0478339
-0.0478342
-0.0478343
-0.0475003
-0.0475003
-0.0475004
-0.0475005
-0.0478341
-0.0475002
-0.0475003
-0.0478346
-0.0475006
-0.0478351
-0.047836
-0.0475007
-0.0475003
-0.0478361
-0.0478352
-0.0475003
-0.0475006
-0.0478346
-0.0475005
-0.0485004
-0.0484999
-0.0485002
-0.0485004
-0.048167
-0.0481673
-0.0481672
-0.0485003
-0.0485003
-0.0485001
-0.0481676
-0.0481674
-0.048168
-0.0481679
-0.048501
-0.0481687
-0.0351668
-0.0351667
-0.035
-0.035
-0.0351667
-0.0345001
-0.0345
-0.0343333
-0.0343333
-0.0345
-0.0338334
-0.0338333
-0.0336667
-0.0336667
-0.0338333
-0.0331668
-0.0331667
-0.033
-0.033
-0.0331667
-0.0325001
-0.0325
-0.0323333
-0.0323333
-0.0325
-0.0318334
-0.0318333
-0.0316667
-0.0316667
-0.0318333
-0.0311668
-0.0311667
-0.031
-0.0311667
-0.0351667
-0.0348333
-0.0351669
-0.0351667
-0.0351675
-0.0348331
-0.0348333
-0.0348325
-0.0351667
-0.0351676
-0.0351668
-0.0348332
-0.0348333
-0.0348324
-0.0348332
-0.0351667
-0.0351667
-0.0348333
-0.0348333
-0.0348333
-0.0351667
-0.0351667
-0.0348333
-0.0348333
-0.0351667
-0.0351667
-0.0351667
-0.0348333
-0.0348333
-0.0348333
-0.0348333
-0.0351667
-0.0348333
-0.0351668
-0.0351673
-0.0348332
-0.0348327
-0.0351673
-0.0351668
-0.0348327
-0.0348332
-0.0351667
-0.0348333
-0.0345
-0.0341667
-0.0345002
-0.0345001
-0.0345008
-0.0341665
-0.0341666
-0.0341659
-0.0345
-0.0345009
-0.0345001
-0.0341666
-0.0341666
-0.0341657
-0.0341666
-0.0345
-0.0345
-0.0341667
-0.0341667
-0.0341667
-0.0345
-0.0345
-0.0341667
-0.0341667
-0.0345
-0.0345
-0.0345
-0.0341667
-0.0341667
-0.0341667
-0.0341667
-0.0345
-0.0341667
-0.0345001
-0.0345006
-0.0341666
-0.034166
-0.0345006
-0.0345001
-0.034166
-0.0341666
-0.0345
-0.0341666
-0.0338333
-0.0335
-0.0338335
-0.0338334
-0.0338341
-0.0334998
-0.0334999
-0.0334992
-0.0338334
-0.0338343
-0.0338334
-0.0334999
-0.0335
-0.0334991
-0.0334999
-0.0338333
-0.0338333
-0.0335
-0.0335
-0.0335
-0.0338333
-0.0338333
-0.0335
-0.0335
-0.0338333
-0.0338333
-0.0338333
-0.0335
-0.0335
-0.0335
-0.0335
-0.0338333
-0.0335
-0.0338334
-0.033834
-0.0334999
-0.0334994
-0.033834
-0.0338334
-0.0334994
-0.0334999
-0.0338334
-0.0335
-0.0331667
-0.0328333
-0.0331669
-0.0331667
-0.0331675
-0.0328331
-0.0328333
-0.0328325
-0.0331667
-0.0331676
-0.0331668
-0.0328332
-0.0328333
-0.0328324
-0.0328332
-0.0331667
-0.0331667
-0.0328333
-0.0328333
-0.0328333
-0.0331667
-0.0331667
-0.0328333
-0.0328333
-0.0331667
-0.0331667
-0.0331667
-0.0328333
-0.0328333
-0.0328333
-0.0328333
-0.0331667
-0.0328333
-0.0331668
-0.0331673
-0.0328332
-0.0328327
-0.0331673
-0.0331668
-0.0328327
-0.0328332
-0.0331667
-0.0328333
-0.0325
-0.0321667
-0.0325002
-0.0325001
-0.0325008
-0.0321665
-0.0321666
-0.0321659
-0.0325
-0.0325009
-0.0325001
-0.0321666
-0.0321666
-0.0321657
-0.0321666
-0.0325
-0.0325
-0.0321667
-0.0321667
-0.0321667
-0.0325
-0.0325
-0.0321667
-0.0321667
-0.0325
-0.0325
-0.0325
-0.0321667
-0.0321667
-0.0321667
-0.0321667
-0.0325
-0.0321667
-0.0325001
-0.0325006
-0.0321666
-0.032166
-0.0325006
-0.0325001
-0.032166
-0.0321666
-0.0325
-0.0321666
-0.0318333
-0.0315
-0.0318335
-0.0318334
-0.0318341
-0.0314998
-0.0314999
-0.0314992
-0.0318334
-0.0318343
-0.0318334
-0.0314999
-0.0315
-0.0314991
-0.0314999
-0.0318333
-0.0318333
-0.0315
-0.0315
-0.0315
-0.0318333
-0.0318333
-0.0315
-0.0315
-0.0318333
-0.0318333
-0.0318333
-0.0315
-0.0315
-0.0315
-0.0315
-0.0318333
-0.0315
-0.0318334
-0.031834
-0.0314999
-0.0314994
-0.031834
-0.0318334
-0.0314994
-0.0314999
-0.0318334
-0.0315
-0.0311667
-0.0311676
-0.0311668
-0.0308332
-0.0308333
-0.0308324
-0.0308332
-0.0311667
-0.0311667
-0.0308333
-0.0308333
-0.0308333
-0.0311667
-0.0311667
-0.0311667
-0.0308333
-0.0308333
-0.0308333
-0.0308333
-0.0311673
-0.0311668
-0.0308327
-0.0308332
-0.0311667
-0.0308333
-0.0445001
-0.0445
-0.0443333
-0.0443333
-0.0445
-0.0438334
-0.0438333
-0.0436667
-0.0436667
-0.0438333
-0.0431668
-0.0431667
-0.043
-0.043
-0.0431667
-0.0425001
-0.0425
-0.0423333
-0.0423333
-0.0425
-0.0418334
-0.0418333
-0.0416667
-0.0416667
-0.0418333
-0.0411668
-0.0411667
-0.041
-0.041
-0.0411667
-0.0405001
-0.0405
-0.0403333
-0.0403333
-0.0405
-0.0398334
-0.0398333
-0.0396667
-0.0396667
-0.0398333
-0.0391668
-0.0391667
-0.039
-0.039
-0.0391667
-0.0385001
-0.0385
-0.0383333
-0.0383333
-0.0385
-0.0378334
-0.0378333
-0.0376667
-0.0376667
-0.0378333
-0.0371668
-0.0371667
-0.037
-0.037
-0.0371667
-0.0365001
-0.0365
-0.0363333
-0.0363333
-0.0365
-0.0358334
-0.0358333
-0.0356667
-0.0356667
-0.0358333
-0.0445
-0.0441667
-0.0445002
-0.0445001
-0.0445008
-0.0441665
-0.0441666
-0.0441659
-0.0445
-0.0445009
-0.0445001
-0.0441666
-0.0441666
-0.0441657
-0.0441666
-0.0445
-0.0445
-0.0441667
-0.0441667
-0.0441667
-0.0445
-0.0445
-0.0441667
-0.0441667
-0.0445
-0.0445
-0.0445
-0.0441667
-0.0441667
-0.0441667
-0.0441667
-0.0445
-0.0441667
-0.0445001
-0.0445006
-0.0441666
-0.044166
-0.0445006
-0.0445001
-0.044166
-0.0441666
-0.0445
-0.0441666
-0.0438333
-0.0435
-0.0438335
-0.0438334
-0.0438341
-0.0434998
-0.0434999
-0.0434992
-0.0438334
-0.0438343
-0.0438334
-0.0434999
-0.0435
-0.0434991
-0.0434999
-0.0438333
-0.0438333
-0.0435
-0.0435
-0.0435
-0.0438333
-0.0438333
-0.0435
-0.0435
-0.0438333
-0.0438333
-0.0438333
-0.0435
-0.0435
-0.0435
-0.0435
-0.0438333
-0.0435
-0.0438334
-0.043834
-0.0434999
-0.0434994
-0.043834
-0.0438334
-0.0434994
-0.0434999
-0.0438334
-0.0435
-0.0431667
-0.0428333
-0.0431669
-0.0431667
-0.0431675
-0.0428331
-0.0428333
-0.0428325
-0.0431667
-0.0431676
-0.0431668
-0.0428332
-0.0428333
-0.0428324
-0.0428332
-0.0431667
-0.0431667
-0.0428333
-0.0428333
-0.0428333
-0.0431667
-0.0431667
-0.0428333
-0.0428333
-0.0431667
-0.0431667
-0.0431667
-0.0428333
-0.0428333
-0.0428333
-0.0428333
-0.0431667
-0.0428333
-0.0431668
-0.0431673
-0.0428332
-0.0428327
-0.0431673
-0.0431668
-0.0428327
-0.0428332
-0.0431667
-0.0428333
-0.0425
-0.0421667
-0.0425002
-0.0425001
-0.0425008
-0.0421665
-0.0421666
-0.0421659
-0.0425
-0.0425009
-0.0425001
-0.0421666
-0.0421666
-0.0421657
-0.0421666
-0.0425
-0.0425
-0.0421667
-0.0421667
-0.0421667
-0.0425
-0.0425
-0.0421667
-0.0421667
-0.0425
-0.0425
-0.0425
-0.0421667
-0.0421667
-0.0421667
-0.0421667
-0.0425
-0.0421667
-0.0425001
-0.0425006
-0.0421666
-0.042166
-0.0425006
-0.0425001
-0.042166
-0.0421666
-0.0425
-0.0421666
-0.0418333
-0.0415
-0.0418335
-0.0418334
-0.0418341
-0.0414998
-0.0414999
-0.0414992
-0.0418334
-0.0418343
-0.0418334
-0.0414999
-0.0415
-0.0414991
-0.0414999
-0.0418333
-0.0418333
-0.0415
-0.0415
-0.0415
-0.0418333
-0.0418333
-0.0415
-0.0415
-0.0418333
-0.0418333
-0.0418333
-0.0415
-0.0415
-0.0415
-0.0415
-0.0418333
-0.0415
-0.0418334
-0.041834
-0.0414999
-0.0414994
-0.041834
-0.0418334
-0.0414994
-0.0414999
-0.0418334
-0.0415
-0.0411667
-0.0408333
-0.0411669
-0.0411667
-0.0411675
-0.0408331
-0.0408333
-0.0408325
-0.0411667
-0.0411676
-0.0411668
-0.0408332
-0.0408333
-0.0408324
-0.0408332
-0.0411667
-0.0411667
-0.0408333
-0.0408333
-0.0408333
-0.0411667
-0.0411667
-0.0408333
-0.0408333
-0.0411667
-0.0411667
-0.0411667
-0.0408333
-0.0408333
-0.0408333
-0.0408333
-0.0411667
-0.0408333
-0.0411668
-0.0411673
-0.0408332
-0.0408327
-0.0411673
-0.0411668
-0.0408327
-0.0408332
-0.0411667
-0.0408333
-0.0405
-0.0401667
-0.0405002
-0.0405001
-0.0405008
-0.0401665
-0.0401666
-0.0401659
-0.0405
-0.0405009
-0.0405001
-0.0401666
-0.0401666
-0.0401657
-0.0401666
-0.0405
-0.0405
-0.0401667
-0.0401667
-0.0401667
-0.0405
-0.0405
-0.0401667
-0.0401667
-0.0405
-0.0405
-0.0405
-0.0401667
-0.0401667
-0.0401667
-0.0401667
-0.0405
-0.0401667
-0.0405001
-0.0405006
-0.0401666
-0.040166
-0.0405006
-0.0405001
-0.040166
-0.0401666
-0.0405
-0.0401666
-0.0398333
-0.0395
-0.0398335
-0.0398334
-0.0398341
-0.0394998
-0.0394999
-0.0394992
-0.0398334
-0.0398343
-0.0398334
-0.0394999
-0.0395
-0.0394991
-0.0394999
-0.0398333
-0.0398333
-0.0395
-0.0395
-0.0395
-0.0398333
-0.0398333
-0.0395
-0.0395
-0.0398333
-0.0398333
-0.0398333
-0.0395
-0.0395
-0.0395
-0.0395
-0.0398333
-0.0395
-0.0398334
-0.039834
-0.0394999
-0.0394994
-0.039834
-0.0398334
-0.0394994
-0.0394999
-0.0398334
-0.0395
-0.0391667
-0.0388333
-0.0391669
-0.0391667
-0.0391675
-0.0388331
-0.0388333
-0.0388325
-0.0391667
-0.0391676
-0.0391668
-0.0388332
-0.0388333
-0.0388324
-0.0388332
-0.0391667
-0.0391667
-0.0388333
-0.0388333
-0.0388333
-0.0391667
-0.0391667
-0.0388333
-0.0388333
-0.0391667
-0.0391667
-0.0391667
-0.0388333
-0.0388333
-0.0388333
-0.0388333
-0.0391667
-0.0388333
-0.0391668
-0.0391673
-0.0388332
-0.0388327
-0.0391673
-0.0391668
-0.0388327
-0.0388332
-0.0391667
-0.0388333
-0.0385
-0.0381667
-0.0385002
-0.0385001
-0.0385008
-0.0381665
-0.0381666
-0.0381659
-0.0385
-0.0385009
-0.0385001
-0.0381666
-0.0381666
-0.0381657
-0.0381666
-0.0385
-0.0385
-0.0381667
-0.0381667
-0.0381667
-0.0385
-0.0385
-0.0381667
-0.0381667
-0.0385
-0.0385
-0.0385
-0.0381667
-0.0381667
-0.0381667
-0.0381667
-0.0385
-0.0381667
-0.0385001
-0.0385006
-0.0381666
-0.038166
-0.0385006
-0.0385001
-0.038166
-0.0381666
-0.0385
-0.0381666
-0.0378333
-0.0375
-0.0378335
-0.0378334
-0.0378341
-0.0374998
-0.0374999
-0.0374992
-0.0378334
-0.0378343
-0.0378334
-0.0374999
-0.0375
-0.0374991
-0.0374999
-0.0378333
-0.0378333
-0.0375
-0.0375
-0.0375
-0.0378333
-0.0378333
-0.0375
-0.0375
-0.0378333
-0.0378333
-0.0378333
-0.0375
-0.0375
-0.0375
-0.0375
-0.0378333
-0.0375
-0.0378334
-0.037834
-0.0374999
-0.0374994
-0.037834
-0.0378334
-0.0374994
-0.0374999
-0.0378334
-0.0375
-0.0371667
-0.0368333
-0.0371669
-0.0371667
-0.0371675
-0.0368331
-0.0368333
-0.0368325
-0.0371667
-0.0371676
-0.0371668
-0.0368332
-0.0368333
-0.0368324
-0.0368332
-0.0371667
-0.0371667
-0.0368333
-0.0368333
-0.0368333
-0.0371667
-0.0371667
-0.0368333
-0.0368333
-0.0371667
-0.0371667
-0.0371667
-0.0368333
-0.0368333
-0.0368333
-0.0368333
-0.0371667
-0.0368333
-0.0371668
-0.0371673
-0.0368332
-0.0368327
-0.0371673
-0.0371668
-0.0368327
-0.0368332
-0.0371667
-0.0368333
-0.0365
-0.0361667
-0.0365002
-0.0365001
-0.0365008
-0.0361665
-0.0361666
-0.0361659
-0.0365
-0.0365009
-0.0365001
-0.0361666
-0.0361666
-0.0361657
-0.0361666
-0.0365
-0.0365
-0.0361667
-0.0361667
-0.0361667
-0.0365
-0.0365
-0.0361667
-0.0361667
-0.0365
-0.0365
-0.0365
-0.0361667
-0.0361667
-0.0361667
-0.0361667
-0.0365
-0.0361667
-0.0365001
-0.0365006
-0.0361666
-0.036166
-0.0365006
-0.0365001
-0.036166
-0.0361666
-0.0365
-0.0361666
-0.0358333
-0.0355
-0.0358335
-0.0358334
-0.0358341
-0.0354998
-0.0354999
-0.0354992
-0.0358334
-0.0358343
-0.0358334
-0.0354999
-0.0355
-0.0354991
-0.0354999
-0.0358333
-0.0358333
-0.0355
-0.0355
-0.0355
-0.0358333
-0.0358333
-0.0355
-0.0355
-0.0358333
-0.0358333
-0.0358333
-0.0355
-0.0355
-0.0355
-0.0355
-0.0358333
-0.0355
-0.0358334
-0.035834
-0.0354999
-0.0354994
-0.035834
-0.0358334
-0.0354994
-0.0354999
-0.0358334
-0.0355
-0.0451668
-0.0451667
-0.045
-0.045
-0.0451667
-0.0451667
-0.0448333
-0.0451669
-0.0451667
-0.0451675
-0.0448331
-0.0448333
-0.0448325
-0.0451667
-0.0451676
-0.0451668
-0.0448332
-0.0448333
-0.0448324
-0.0448332
-0.0451667
-0.0451667
-0.0448333
-0.0448333
-0.0448333
-0.0451667
-0.0451667
-0.0448333
-0.0448333
-0.0451667
-0.0451667
-0.0451667
-0.0448333
-0.0448333
-0.0448333
-0.0448333
-0.0451667
-0.0448333
-0.0451668
-0.0451673
-0.0448332
-0.0448327
-0.0451673
-0.0451668
-0.0448327
-0.0448332
-0.0451667
-0.0448333
-0.0471668
-0.0471667
-0.0470002
-0.0470002
-0.0471668
-0.0465001
-0.0465
-0.0463333
-0.0463333
-0.0465
-0.0458334
-0.0458333
-0.0456667
-0.0456667
-0.0458333
-0.0471667
-0.0468333
-0.0471669
-0.0471668
-0.0471676
-0.0468331
-0.0468333
-0.0468326
-0.0471667
-0.0471677
-0.0471669
-0.0468332
-0.0468333
-0.0468324
-0.0468332
-0.0471667
-0.0471667
-0.0468333
-0.0468333
-0.0468333
-0.0471667
-0.0471667
-0.0468333
-0.0468333
-0.0471668
-0.0471668
-0.0471668
-0.0468334
-0.0468334
-0.0468334
-0.0468334
-0.0471668
-0.0468333
-0.047167
-0.0471676
-0.0468333
-0.0468327
-0.0471676
-0.047167
-0.0468328
-0.0468333
-0.0471669
-0.0468333
-0.0465
-0.0461666
-0.0465002
-0.0465001
-0.0465008
-0.0461665
-0.0461666
-0.0461659
-0.0465
-0.0465009
-0.0465001
-0.0461666
-0.0461666
-0.0461657
-0.0461666
-0.0465
-0.0465
-0.0461667
-0.0461667
-0.0461667
-0.0465
-0.0465
-0.0461667
-0.0461667
-0.0465
-0.0465
-0.0465
-0.0461667
-0.0461667
-0.0461667
-0.0461667
-0.0465
-0.0461666
-0.0465001
-0.0465006
-0.0461666
-0.046166
-0.0465006
-0.0465001
-0.046166
-0.0461666
-0.0465
-0.0461666
-0.0458333
-0.0455
-0.0458335
-0.0458334
-0.0458341
-0.0454998
-0.0454999
-0.0454992
-0.0458334
-0.0458343
-0.0458334
-0.0454999
-0.0455
-0.0454991
-0.0454999
-0.0458333
-0.0458333
-0.0455
-0.0455
-0.0455
-0.0458333
-0.0458333
-0.0455
-0.0455
-0.0458333
-0.0458333
-0.0458333
-0.0455
-0.0455
-0.0455
-0.0455
-0.0458333
-0.0455
-0.0458334
-0.045834
-0.0454999
-0.0454993
-0.0458339
-0.0458334
-0.0454994
-0.0454999
-0.0458333
-0.0455
-0.031
-0.0303333
-0.0311667
-0.0308333
-0.0311669
-0.0311667
-0.0311675
-0.0308331
-0.0308333
-0.0308325
-0.0311667
-0.0311667
-0.0308333
-0.0308333
-0.0311667
-0.0308333
-0.0311668
-0.0311673
-0.0308332
-0.0308327
-0.0305
-0.0301667
-0.0305002
-0.0305001
-0.0305008
-0.0301665
-0.0301666
-0.0301659
-0.0305
-0.0305
-0.0301667
-0.0301667
-0.0305
-0.0301667
-0.0305001
-0.0305006
-0.0301666
-0.030166
-0.0305006
-0.0305001
-0.0305001
-0.0305
-0.0303333
-0.0305
-0.0298334
-0.0298333
-0.0296667
-0.0296667
-0.0298333
-0.0305
-0.0305009
-0.0305001
-0.0301666
-0.0301666
-0.0301657
-0.0301666
-0.0305
-0.0305
-0.0301667
-0.0301667
-0.0301667
-0.0305
-0.0305
-0.0305
-0.0301667
-0.0301667
-0.0301667
-0.0301667
-0.030166
-0.0301666
-0.0305
-0.0301666
-0.0298333
-0.0295
-0.0298335
-0.0298334
-0.0298341
-0.0294998
-0.0294999
-0.0294992
-0.0298334
-0.0298343
-0.0298334
-0.0294999
-0.0295
-0.0294991
-0.0294999
-0.0298333
-0.0298333
-0.0295
-0.0295
-0.0295
-0.0298333
-0.0298333
-0.0295
-0.0295
-0.0298333
-0.0298333
-0.0298333
-0.0295
-0.0295
-0.0295
-0.0295
-0.0298333
-0.0295
-0.0298334
-0.029834
-0.0294999
-0.0294994
-0.029834
-0.0298334
-0.0294994
-0.0294999
-0.0298334
-0.0295
0.0328333
0.0328333
0.0328333
0.033
0.033
0.0328333
0.033
0.033
0.0328332
0.0328333
0.0328331
0.0328333
0.0335
0.0335
0.0335
0.0335
0.0336667
0.0336667
0.0335
0.0335
0.0336667
0.0336667
0.0334998
0.0335
0.0335
0.0334998
0.0335
0.0341667
0.0341666
0.0341667
0.0341667
0.0343333
0.0343333
0.0341666
0.0341666
0.0343333
0.0343333
0.0341665
0.0348333
0.0348333
0.0348333
0.0328333
0.0328333
0.0331667
0.0331667
0.0328333
0.0331667
0.0328333
0.0328333
0.0328331
0.0331667
0.0331667
0.0331667
0.0331669
0.0328333
0.0328331
0.0328333
0.0331667
0.0331667
0.0331669
0.0331667
0.0328333
0.0331667
0.0331667
0.0328333
0.032833
0.0328333
0.0331667
0.0331667
0.033167
0.0331667
0.0328333
0.0328333
0.0328333
0.0331668
0.0331667
0.0331667
0.0331667
0.032833
0.0328333
0.0328333
0.0331667
0.033167
0.0331667
0.0331667
0.0328333
0.0328333
0.0328333
0.0331669
0.0331667
0.0331667
0.0331667
0.0331667
0.0335
0.0335
0.0338333
0.0338333
0.0335
0.0338333
0.0335
0.0335
0.0335
0.0338333
0.0338333
0.0338333
0.0335
0.0335
0.0334998
0.0338333
0.0338334
0.0338334
0.0338336
0.0335
0.0334997
0.0335
0.0338334
0.0338333
0.0338336
0.0338334
0.0335
0.0338333
0.0338333
0.0335
0.0335
0.0338333
0.0338333
0.0335
0.0335
0.0334998
0.0338333
0.0338334
0.0338334
0.0338336
0.0335
0.0334997
0.0335
0.0338334
0.0338333
0.0338336
0.0338334
0.0335
0.0338333
0.0334997
0.0335
0.0335
0.0338334
0.0338336
0.0338334
0.0338334
0.0335
0.0335
0.0335
0.0338335
0.0338334
0.0338333
0.0338333
0.0335
0.0338333
0.0338333
0.0334997
0.0335
0.0335
0.0338334
0.0338336
0.0338333
0.0338334
0.0335
0.0335
0.0335
0.0338335
0.0338334
0.0338334
0.0338333
0.0338333
0.0341667
0.0341667
0.0345
0.0345
0.0341667
0.0345
0.0341667
0.0341667
0.0341667
0.0345
0.0345
0.0345
0.0341666
0.0341666
0.0341664
0.0345
0.0345
0.0345
0.0345002
0.0341667
0.0341664
0.0341666
0.0345
0.0345
0.0345003
0.0345
0.0341667
0.0345
0.0345
0.0341667
0.0341667
0.0345
0.0345
0.0341666
0.0341666
0.0341664
0.0345
0.0345
0.0345
0.0345002
0.0341667
0.0341664
0.0341666
0.0345
0.0345
0.0345003
0.0345
0.0341667
0.0345
0.0341664
0.0341666
0.0341666
0.0345
0.0345003
0.0345
0.0345
0.0341666
0.0341667
0.0341667
0.0345002
0.0345
0.0345
0.0345
0.0348333
0.0348333
0.0351667
0.0351667
0.0348333
0.0351667
0.0348333
0.0348333
0.0348333
0.0351667
0.0351667
0.0351667
0.0348333
0.0348333
0.0348331
0.0351667
0.0351667
0.0351667
0.0351669
0.0348333
0.0348331
0.0348333
0.0351667
0.0351667
0.0351669
0.0351667
0.0348333
0.0351667
0.0351667
0.0341667
0.0341666
0.0341665
0.0341667
0.0348333
0.035
0.035
0.0348333
0.0348333
0.035
0.035
0.0348332
0.0348333
0.0348333
0.0348331
0.0348333
0.0355
0.0355
0.0355
0.0355
0.0355
0.0355
0.0354998
0.0355
0.0341667
0.0345
0.0345
0.0341664
0.0341667
0.0341666
0.0345
0.0345003
0.0345
0.0345
0.0341666
0.0341666
0.0341667
0.0345002
0.0345
0.0345
0.0345
0.0345
0.0348333
0.0348333
0.0351667
0.0351667
0.0348333
0.0348333
0.0348331
0.0351667
0.0351667
0.0351667
0.0351669
0.0348333
0.034833
0.0348333
0.0351667
0.0351667
0.035167
0.0351667
0.0348333
0.0351667
0.0348331
0.0348333
0.0348333
0.0351667
0.0351669
0.0351667
0.0351667
0.0348333
0.0348333
0.0348333
0.0351668
0.0351667
0.0351667
0.0351667
0.0348333
0.0351667
0.0351667
0.034833
0.0348333
0.0348333
0.0351667
0.035167
0.0351667
0.0351667
0.0348333
0.0348333
0.0348333
0.0351669
0.0351667
0.0351667
0.0351667
0.0351667
0.0355
0.0355
0.0355
0.0355
0.0355
0.0355
0.0355
0.0355
0.0354998
0.0354997
0.0355
0.0355
0.0355
0.0355
0.0354998
0.0355
0.0354997
0.0355
0.0355
0.0355
0.0354997
0.0355
0.0355
0.0355
0.0355
0.0355
0.0128333
0.0128333
0.0128333
0.0128333
0.013
0.013
0.0128333
0.0128333
0.013
0.013
0.0128332
0.0128333
0.0128333
0.0128331
0.0128333
0.0135
0.0135
0.0135
0.0135
0.0136667
0.0136667
0.0135
0.0135
0.0136667
0.0136667
0.0134998
0.0135
0.0135
0.0134998
0.0135
0.0141667
0.0141666
0.0141667
0.0141667
0.0143333
0.0143333
0.0141666
0.0141666
0.0143333
0.0143333
0.0141665
0.0141667
0.0141666
0.0141665
0.0141667
0.0148333
0.0148333
0.0148333
0.0148333
0.015
0.015
0.0148333
0.0148333
0.015
0.015
0.0148332
0.0148333
0.0148333
0.0148331
0.0148333
0.0128333
0.0128333
0.0131667
0.0131667
0.0128333
0.0131667
0.0128333
0.0128333
0.0128333
0.0131667
0.0131667
0.0131667
0.0128333
0.0128333
0.0128331
0.0131667
0.0131667
0.0131667
0.0131669
0.0128333
0.0128331
0.0128333
0.0131667
0.0131667
0.0131669
0.0131667
0.0128333
0.0131667
0.0131667
0.0128333
0.0128333
0.0131667
0.0131667
0.0128333
0.0128333
0.0128331
0.0131667
0.0131667
0.0131667
0.0131669
0.0128333
0.012833
0.0128333
0.0131667
0.0131667
0.013167
0.0131667
0.0128333
0.0131667
0.0128331
0.0128333
0.0128333
0.0131667
0.0131669
0.0131667
0.0131667
0.0128333
0.0128333
0.0128333
0.0131668
0.0131667
0.0131667
0.0131667
0.0128333
0.0131667
0.0131667
0.012833
0.0128333
0.0128333
0.0131667
0.013167
0.0131667
0.0131667
0.0128333
0.0128333
0.0128333
0.0131669
0.0131667
0.0131667
0.0131667
0.0131667
0.0135
0.0135
0.0138333
0.0138333
0.0135
0.0138333
0.0135
0.0135
0.0135
0.0138333
0.0138333
0.0138333
0.0135
0.0135
0.0134998
0.0138333
0.0138334
0.0138334
0.0138336
0.0135
0.0134997
0.0135
0.0138334
0.0138333
0.0138336
0.0138334
0.0135
0.0138333
0.0138333
0.0135
0.0135
0.0138333
0.0138333
0.0135
0.0135
0.0134998
0.0138333
0.0138334
0.0138334
0.0138336
0.0135
0.0134997
0.0135
0.0138334
0.0138333
0.0138336
0.0138334
0.0135
0.0138333
0.0134997
0.0135
0.0135
0.0138334
0.0138336
0.0138333
0.0138334
0.0135
0.0135
0.0135
0.0138335
0.0138334
0.0138333
0.0138333
0.0135
0.0138333
0.0138333
0.0134997
0.0135
0.0135
0.0138334
0.0138336
0.0138333
0.0138334
0.0135
0.0135
0.0135
0.0138335
0.0138334
0.0138334
0.0138333
0.0138333
0.0141667
0.0141667
0.0145
0.0145
0.0141667
0.0145
0.0141667
0.0141667
0.0141667
0.0145
0.0145
0.0145
0.0141666
0.0141666
0.0141664
0.0145
0.0145
0.0145
0.0145002
0.0141667
0.0141664
0.0141666
0.0145
0.0145
0.0145003
0.0145
0.0141667
0.0145
0.0145
0.0141667
0.0141667
0.0145
0.0145
0.0141666
0.0141666
0.0141664
0.0145
0.0145
0.0145
0.0145002
0.0141667
0.0141664
0.0141666
0.0145
0.0145
0.0145003
0.0145
0.0141667
0.0145
0.0141664
0.0141667
0.0141666
0.0145
0.0145003
0.0145
0.0145
0.0141666
0.0141667
0.0141667
0.0145002
0.0145
0.0145
0.0145
0.0141667
0.0145
0.0145
0.0141664
0.0141667
0.0141666
0.0145
0.0145003
0.0145
0.0145
0.0141666
0.0141666
0.0141667
0.0145002
0.0145
0.0145
0.0145
0.0145
0.0148333
0.0148333
0.0151667
0.0151667
0.0148333
0.0151667
0.0148333
0.0148333
0.0148333
0.0151667
0.0151667
0.0151667
0.0148333
0.0148333
0.0148331
0.0151667
0.0151667
0.0151667
0.0151669
0.0148333
0.0148331
0.0148333
0.0151667
0.0151667
0.0151669
0.0151667
0.0148333
0.0151667
0.0151667
0.0148333
0.0148333
0.0151667
0.0151667
0.0148333
0.0148333
0.0148331
0.0151667
0.0151667
0.0151667
0.0151669
0.0148333
0.014833
0.0148333
0.0151667
0.0151667
0.015167
0.0151667
0.0148333
0.0151667
0.0148331
0.0148333
0.0148333
0.0151667
0.0151669
0.0151667
0.0151667
0.0148333
0.0148333
0.0148333
0.0151668
0.0151667
0.0151667
0.0151667
0.0148333
0.0151667
0.0151667
0.014833
0.0148333
0.0148333
0.0151667
0.015167
0.0151667
0.0151667
0.0148333
0.0148333
0.0148333
0.0151669
0.0151667
0.0151667
0.0151667
0.0151667
0.0155
0.0155
0.0158333
0.0158333
0.0155
0.0158333
0.0155
0.0155
0.0155
0.0155
0.0156667
0.0156667
0.0155
0.0155
0.0156667
0.0156667
0.0154998
0.0155
0.0155