/*--------------------------------*- C++ -*----------------------------------*\
  =========                 |
  \\      /  F ield         | OpenFOAM: The Open Source CFD Toolbox
   \\    /   O peration     | Website:  https://openfoam.org
    \\  /    A nd           | Version:  9
     \\/     M anipulation  |
\*---------------------------------------------------------------------------*/
FoamFile
{
    format      ascii;
    class       volScalarField;
    location    "0";
    object      static(p);
}
// * * * * * * * * * * * * * * * * * * * * * * * * * * * * * * * * * * * * * //

dimensions      [1 -1 -2 0 0 0 0];

internalField   nonuniform List<scalar> 
132485
(
0.161714
0.16171
0.161707
0.161718
0.161085
0.161084
0.161715
0.161715
0.161085
0.161085
0.161704
0.161712
0.161717
0.161705
0.161706
0.15917
0.159168
0.159166
0.159172
0.158542
0.158543
0.159175
0.159171
0.158544
0.158545
0.159166
0.15917
0.159178
0.159167
0.15917
0.156626
0.156626
0.156625
0.156627
0.155998
0.156
0.156634
0.156627
0.156001
0.156003
0.156625
0.156627
0.156635
0.156626
0.156628
0.154082
0.154082
0.154081
0.154082
0.153452
0.153454
0.154089
0.154082
0.153455
0.153457
0.15408
0.154082
0.15409
0.154081
0.154083
0.151536
0.151536
0.151534
0.151536
0.150904
0.150907
0.151541
0.151535
0.150907
0.150909
0.151532
0.151534
0.151541
0.151532
0.151534
0.148988
0.148988
0.148985
0.148987
0.148356
0.148358
0.148992
0.148986
0.148358
0.148359
0.148981
0.148984
0.148992
0.148981
0.148983
0.146441
0.14644
0.146437
0.146439
0.145809
0.14581
0.146443
0.146437
0.14581
0.14581
0.146431
0.146434
0.146441
0.14643
0.14643
0.162994
0.162992
0.162994
0.163002
0.161707
0.161707
0.160451
0.160449
0.161705
0.160452
0.161714
0.161716
0.161719
0.160447
0.160449
0.160445
0.16171
0.161713
0.161703
0.160446
0.160449
0.16045
0.16046
0.161712
0.161706
0.161714
0.160449
0.160448
0.160458
0.160449
0.161712
0.160454
0.160451
0.161713
0.161714
0.160455
0.160454
0.161715
0.161715
0.161706
0.160449
0.160452
0.160453
0.160463
0.1617
0.161703
0.161707
0.160451
0.160467
0.160465
0.160462
0.161711
0.160457
0.161709
0.161717
0.161717
0.160453
0.160461
0.160452
0.160453
0.161706
0.161715
0.161698
0.160466
0.160463
0.160456
0.160473
0.161716
0.160458
0.160454
0.161705
0.161703
0.161709
0.160454
0.160467
0.160469
0.160464
0.161715
0.161708
0.161699
0.160467
0.160457
0.160465
0.160475
0.160466
0.159163
0.159164
0.157907
0.157906
0.159162
0.15791
0.159169
0.15917
0.159173
0.157902
0.157902
0.1579
0.159167
0.15917
0.15916
0.157902
0.157906
0.157906
0.157917
0.159171
0.159164
0.159173
0.157907
0.157906
0.157916
0.157908
0.159172
0.157913
0.15791
0.159166
0.159168
0.157908
0.157908
0.159171
0.15917
0.159163
0.157903
0.157907
0.157908
0.157918
0.159161
0.159164
0.159169
0.157911
0.157927
0.157925
0.157923
0.159166
0.157912
0.159167
0.159175
0.159176
0.157909
0.157918
0.157909
0.15791
0.159169
0.159177
0.159161
0.157926
0.157925
0.157917
0.157935
0.159175
0.157916
0.157913
0.159166
0.159164
0.159171
0.157913
0.157927
0.157929
0.157924
0.159178
0.159171
0.159162
0.157928
0.157917
0.157926
0.157936
0.157927
0.15662
0.156622
0.155364
0.155364
0.15662
0.155367
0.156625
0.156625
0.156629
0.155358
0.155358
0.155355
0.156624
0.156625
0.156617
0.155358
0.155363
0.155362
0.155373
0.156629
0.156621
0.156631
0.155364
0.155363
0.155372
0.155365
0.15663
0.155371
0.155368
0.15662
0.156623
0.155364
0.155364
0.156626
0.156625
0.156618
0.155358
0.155362
0.155364
0.155373
0.15662
0.156623
0.156628
0.155368
0.155384
0.155382
0.15538
0.156622
0.155368
0.156622
0.156631
0.156632
0.155365
0.155373
0.155364
0.155366
0.156628
0.156636
0.15662
0.155383
0.155382
0.155374
0.155392
0.156632
0.155372
0.155369
0.156624
0.156622
0.156629
0.155369
0.155383
0.155386
0.155381
0.156636
0.156629
0.15662
0.155384
0.155374
0.155383
0.155393
0.155384
0.154076
0.154078
0.152819
0.152819
0.154077
0.152822
0.15408
0.15408
0.154084
0.152813
0.152813
0.15281
0.15408
0.15408
0.154072
0.152813
0.152818
0.152816
0.152828
0.154085
0.154076
0.154086
0.152819
0.152818
0.152827
0.152819
0.154086
0.152825
0.152822
0.154076
0.154078
0.152819
0.152819
0.15408
0.15408
0.154073
0.152813
0.152816
0.152818
0.152828
0.154075
0.154078
0.154083
0.152822
0.152838
0.152836
0.152833
0.154077
0.152823
0.154077
0.154086
0.154087
0.152819
0.152827
0.152818
0.15282
0.154083
0.154091
0.154075
0.152837
0.152835
0.152827
0.152845
0.154087
0.152826
0.152823
0.154079
0.154076
0.154084
0.152822
0.152836
0.152839
0.152834
0.154091
0.154084
0.154075
0.152837
0.152827
0.152835
0.152845
0.152837
0.151531
0.151533
0.150273
0.150273
0.151531
0.150276
0.151535
0.151534
0.151538
0.150266
0.150266
0.150263
0.151534
0.151534
0.151526
0.150267
0.150272
0.150269
0.15028
0.151539
0.15153
0.151539
0.150272
0.150271
0.150279
0.150271
0.151539
0.150277
0.150274
0.15153
0.151532
0.150272
0.150271
0.151534
0.151533
0.151526
0.150266
0.150269
0.15027
0.15028
0.151528
0.15153
0.151535
0.150273
0.150289
0.150287
0.150283
0.15153
0.150274
0.15153
0.151538
0.151539
0.150271
0.150279
0.150269
0.150271
0.151534
0.151542
0.151526
0.150287
0.150285
0.150278
0.150295
0.151539
0.150276
0.150273
0.15153
0.151528
0.151535
0.150273
0.150287
0.150289
0.150283
0.151542
0.151535
0.151526
0.150288
0.150278
0.150285
0.150295
0.150287
0.148983
0.148985
0.147724
0.147724
0.148983
0.147727
0.148987
0.148986
0.14899
0.147718
0.147717
0.147715
0.148986
0.148986
0.148978
0.147718
0.147723
0.147721
0.147732
0.14899
0.148982
0.148991
0.147724
0.147722
0.147731
0.147723
0.14899
0.147728
0.147725
0.148981
0.148983
0.147722
0.147721
0.148986
0.148984
0.148977
0.147716
0.14772
0.147721
0.147731
0.148978
0.14898
0.148985
0.147724
0.147739
0.147737
0.147733
0.148981
0.147724
0.148981
0.148989
0.14899
0.147721
0.147729
0.14772
0.147721
0.148984
0.148992
0.148975
0.147737
0.147734
0.147726
0.147743
0.148989
0.147726
0.147723
0.14898
0.148977
0.148984
0.147723
0.147736
0.147738
0.147732
0.148992
0.148984
0.148975
0.147736
0.147726
0.147733
0.147743
0.147735
0.146435
0.146437
0.145178
0.145177
0.146435
0.145181
0.146439
0.146438
0.146442
0.145172
0.145171
0.145168
0.146439
0.146439
0.146431
0.145172
0.145177
0.145174
0.145185
0.146442
0.146434
0.146443
0.145177
0.145175
0.145184
0.145175
0.146441
0.145181
0.145177
0.146432
0.146434
0.145175
0.145174
0.146438
0.146436
0.146429
0.14517
0.145173
0.145174
0.145184
0.146428
0.146431
0.146434
0.145175
0.14519
0.145188
0.145183
0.146432
0.145177
0.146432
0.146439
0.146441
0.145174
0.145182
0.145171
0.145173
0.146433
0.146441
0.146423
0.145187
0.145184
0.145176
0.145192
0.146439
0.145177
0.145174
0.14643
0.146426
0.146433
0.145174
0.145186
0.145188
0.145182
0.14644
0.146432
0.146422
0.145186
0.145175
0.145182
0.145191
0.145184
0.143896
0.143894
0.143891
0.143894
0.143265
0.143266
0.143896
0.143891
0.143264
0.143265
0.143883
0.143888
0.143894
0.143882
0.143883
0.14389
0.143891
0.142634
0.142633
0.143889
0.142637
0.143894
0.143893
0.143897
0.142628
0.142627
0.142625
0.143893
0.143894
0.143885
0.142628
0.142632
0.142631
0.142642
0.143896
0.143888
0.143897
0.142633
0.142631
0.14264
0.142632
0.143895
0.142636
0.142632
0.143887
0.143888
0.142632
0.14263
0.143893
0.14389
0.143884
0.142626
0.14263
0.14263
0.14264
0.14388
0.143884
0.143886
0.142631
0.142645
0.142643
0.142638
0.143886
0.142633
0.143886
0.143893
0.143895
0.14263
0.142638
0.142627
0.142629
0.143885
0.143893
0.143875
0.142641
0.142638
0.142631
0.142647
0.143893
0.142632
0.142629
0.143882
0.143878
0.143884
0.142628
0.142641
0.142641
0.142636
0.143892
0.143883
0.143873
0.14264
0.14263
0.142636
0.142645
0.142639
0.372451
0.372429
0.371286
0.371268
0.37179
0.369697
0.36973
0.369411
0.368823
0.368942
0.369309
0.37252
0.372844
0.372965
0.371059
0.37112
0.371373
0.371526
0.372937
0.372848
0.371089
0.371489
0.371395
0.372462
0.371112
0.371561
0.370468
0.370294
0.372644
0.372746
0.371056
0.371209
0.372761
0.372557
0.371241
0.371093
0.37216
0.370831
0.369701
0.369723
0.369866
0.368379
0.368393
0.368508
0.369736
0.369955
0.370048
0.368388
0.368441
0.368605
0.368739
0.37005
0.370017
0.36848
0.368732
0.368656
0.369759
0.368475
0.369569
0.36936
0.369428
0.368109
0.368198
0.368065
0.368079
0.369166
0.368053
0.367968
0.369553
0.368223
0.369644
0.369736
0.368282
0.368424
0.369784
0.369723
0.368467
0.368399
0.369486
0.36827
0.372121
0.372457
0.372465
0.372728
0.371069
0.371083
0.37127
0.372472
0.372087
0.372463
0.370726
0.370946
0.370675
0.370797
0.372535
0.370974
0.321182
0.321191
0.320561
0.320561
0.321193
0.318661
0.318669
0.318039
0.318039
0.318672
0.316139
0.316148
0.315518
0.315517
0.31615
0.313617
0.313625
0.312995
0.312995
0.313627
0.311093
0.311101
0.310472
0.310471
0.311103
0.308569
0.308577
0.307948
0.307947
0.308579
0.306045
0.306053
0.305423
0.306055
0.321167
0.319957
0.321173
0.321183
0.32116
0.319955
0.319943
0.319968
0.32119
0.32115
0.321183
0.319946
0.319937
0.31998
0.319945
0.321192
0.321192
0.319937
0.319937
0.319936
0.321192
0.321184
0.319929
0.319936
0.321194
0.321194
0.321191
0.319932
0.319932
0.319931
0.319935
0.321144
0.31998
0.321169
0.321158
0.319957
0.31997
0.321154
0.321183
0.319974
0.319944
0.321181
0.319946
0.318647
0.317436
0.318652
0.318662
0.318639
0.317434
0.317422
0.317447
0.318669
0.318629
0.318662
0.317425
0.317416
0.317459
0.317423
0.31867
0.318671
0.317416
0.317415
0.317415
0.318671
0.318663
0.317407
0.317415
0.318672
0.318673
0.318669
0.31741
0.31741
0.317409
0.317413
0.318623
0.317458
0.318648
0.318637
0.317436
0.317448
0.318633
0.318662
0.317453
0.317422
0.318659
0.317424
0.316125
0.314914
0.31613
0.316141
0.316117
0.314912
0.3149
0.314925
0.316147
0.316108
0.31614
0.314903
0.314894
0.314936
0.314901
0.316148
0.316148
0.314893
0.314893
0.314892
0.316149
0.316141
0.314885
0.314893
0.31615
0.316151
0.316147
0.314888
0.314887
0.314887
0.314891
0.316101
0.314936
0.316126
0.316115
0.314914
0.314926
0.316111
0.31614
0.314931
0.3149
0.316137
0.314902
0.313603
0.312391
0.313608
0.313619
0.313595
0.312389
0.312377
0.312402
0.313625
0.313585
0.313617
0.31238
0.312371
0.312413
0.312378
0.313626
0.313626
0.31237
0.312369
0.312369
0.313627
0.313618
0.312363
0.31237
0.313628
0.313628
0.313624
0.312364
0.312364
0.312364
0.312367
0.313579
0.312413
0.313604
0.313593
0.312391
0.312403
0.313588
0.313617
0.312407
0.312377
0.313614
0.312379
0.311079
0.309868
0.311084
0.311095
0.311072
0.309865
0.309853
0.309878
0.311101
0.311062
0.311093
0.309856
0.309847
0.30989
0.309854
0.311102
0.311102
0.309846
0.309845
0.309844
0.311104
0.311095
0.309839
0.309847
0.311104
0.311104
0.3111
0.30984
0.30984
0.30984
0.309843
0.311055
0.30989
0.31108
0.311069
0.309867
0.30988
0.311065
0.311093
0.309884
0.309853
0.311091
0.309855
0.308556
0.307344
0.308561
0.308571
0.308548
0.307341
0.307329
0.307354
0.308577
0.308538
0.308569
0.307332
0.307322
0.307366
0.30733
0.308578
0.308577
0.307322
0.307321
0.30732
0.30858
0.308572
0.307315
0.307323
0.30858
0.30858
0.308576
0.307316
0.307316
0.307316
0.307319
0.308532
0.307366
0.308557
0.308545
0.307343
0.307356
0.308541
0.30857
0.30736
0.307329
0.308567
0.307331
0.306053
0.306013
0.306045
0.304807
0.304798
0.304841
0.304806
0.306053
0.306053
0.304798
0.304797
0.304796
0.306056
0.306056
0.306052
0.304792
0.304792
0.304792
0.304795
0.306017
0.306045
0.304836
0.304805
0.306043
0.304807
0.35644
0.356422
0.355856
0.355766
0.356374
0.353892
0.353885
0.353304
0.353238
0.353853
0.351357
0.351357
0.350764
0.350718
0.351338
0.348833
0.348837
0.348235
0.348202
0.348828
0.346317
0.346324
0.345714
0.345692
0.346322
0.343807
0.343816
0.343201
0.343186
0.343817
0.341299
0.341307
0.34069
0.34068
0.341312
0.33879
0.338799
0.33818
0.338173
0.338805
0.336279
0.336289
0.335669
0.335664
0.336295
0.333767
0.333777
0.333155
0.333152
0.333783
0.331253
0.331263
0.33064
0.330638
0.331268
0.328738
0.328748
0.328122
0.328121
0.328752
0.326222
0.326231
0.325603
0.325602
0.326234
0.323703
0.323712
0.323082
0.323082
0.323715
0.356448
0.355216
0.356449
0.356481
0.356476
0.355214
0.355214
0.355256
0.356441
0.356457
0.356468
0.355188
0.355174
0.355257
0.355208
0.356449
0.356435
0.355159
0.35518
0.355169
0.356446
0.356454
0.355167
0.355191
0.356369
0.356389
0.356382
0.355108
0.355108
0.355124
0.355127
0.356445
0.355266
0.356496
0.356482
0.355267
0.355278
0.356462
0.356467
0.355269
0.355219
0.35643
0.355189
0.353891
0.352667
0.353899
0.353917
0.35391
0.352671
0.35266
0.352701
0.353897
0.353892
0.353912
0.352648
0.352636
0.352703
0.352661
0.353905
0.353897
0.352627
0.352642
0.352636
0.353901
0.353906
0.352627
0.352647
0.353853
0.353872
0.353867
0.352591
0.352594
0.352608
0.352613
0.353894
0.352719
0.353942
0.35393
0.352717
0.352729
0.353917
0.353931
0.352726
0.352685
0.353899
0.352661
0.351349
0.350133
0.351361
0.351372
0.351363
0.350138
0.350123
0.350162
0.351364
0.351346
0.351372
0.350118
0.350108
0.350165
0.350127
0.351372
0.351367
0.350103
0.350114
0.350111
0.351366
0.351367
0.350097
0.350113
0.351341
0.351357
0.351353
0.350079
0.350083
0.350095
0.3501
0.351352
0.350181
0.351396
0.351386
0.350176
0.35019
0.351378
0.351398
0.350191
0.350155
0.351372
0.350137
0.348822
0.347611
0.348834
0.348842
0.34883
0.347616
0.3476
0.347635
0.348841
0.348814
0.348843
0.347599
0.34759
0.34764
0.347604
0.348849
0.348846
0.347587
0.347595
0.347593
0.348842
0.34884
0.347577
0.34759
0.348831
0.348845
0.348841
0.347572
0.347575
0.347585
0.347589
0.34882
0.347653
0.348861
0.348851
0.347645
0.34766
0.348847
0.348872
0.347664
0.347631
0.348851
0.347618
0.346304
0.345097
0.346316
0.346323
0.346308
0.345101
0.345086
0.345119
0.346326
0.346293
0.346325
0.345086
0.345078
0.345124
0.34509
0.346333
0.346332
0.345077
0.345082
0.345081
0.346326
0.346321
0.345064
0.345075
0.346324
0.346335
0.346331
0.345067
0.345069
0.345077
0.345081
0.346297
0.345134
0.346335
0.346326
0.345122
0.345138
0.346323
0.34635
0.345144
0.345112
0.346335
0.345104
0.343794
0.342589
0.343804
0.343812
0.343795
0.342591
0.342576
0.342607
0.343816
0.34378
0.343813
0.342578
0.342569
0.342614
0.34258
0.343822
0.343821
0.342569
0.342572
0.342571
0.343816
0.343809
0.342556
0.342565
0.343819
0.343827
0.343823
0.342562
0.342563
0.34257
0.342573
0.343782
0.342621
0.343816
0.343807
0.342606
0.342622
0.343805
0.343834
0.342628
0.342597
0.343823
0.342593
0.341285
0.340081
0.341294
0.341304
0.341284
0.340081
0.340068
0.340097
0.341307
0.34127
0.341304
0.340069
0.34006
0.340105
0.340071
0.341312
0.341312
0.34006
0.340063
0.340062
0.341308
0.341301
0.34005
0.340058
0.341312
0.34132
0.341314
0.340057
0.340057
0.340062
0.340065
0.34127
0.34011
0.341302
0.341293
0.340093
0.340108
0.341291
0.34132
0.340114
0.340084
0.341312
0.340082
0.338778
0.337573
0.338784
0.338795
0.338774
0.337571
0.33756
0.337587
0.338798
0.338761
0.338794
0.33756
0.337551
0.337595
0.337561
0.338803
0.338802
0.337551
0.337553
0.337552
0.338801
0.338793
0.337543
0.33755
0.338805
0.338811
0.338806
0.337549
0.337548
0.337552
0.337555
0.338761
0.3376
0.33879
0.33878
0.337581
0.337596
0.338778
0.338807
0.337601
0.337571
0.338801
0.337571
0.336268
0.335062
0.336273
0.336285
0.336263
0.335059
0.335049
0.335075
0.336288
0.33625
0.336283
0.335048
0.33504
0.335084
0.335049
0.336292
0.336292
0.33504
0.335041
0.335041
0.336292
0.336284
0.335033
0.335041
0.336295
0.3363
0.336295
0.335038
0.335037
0.335041
0.335043
0.336249
0.335088
0.336277
0.336267
0.335068
0.335082
0.336264
0.336293
0.335088
0.335058
0.336289
0.335058
0.333757
0.33255
0.33376
0.333773
0.33375
0.332545
0.332536
0.332561
0.333776
0.333738
0.333771
0.332535
0.332527
0.332571
0.332536
0.333779
0.333779
0.332527
0.332528
0.332527
0.333781
0.333773
0.332521
0.332528
0.333782
0.333787
0.333782
0.332525
0.332524
0.332527
0.332529
0.333737
0.332574
0.333763
0.333753
0.332553
0.332567
0.33375
0.333779
0.332572
0.332542
0.333775
0.332543
0.331242
0.330034
0.331245
0.331258
0.331235
0.33003
0.33002
0.330045
0.331262
0.331224
0.331256
0.33002
0.330012
0.330056
0.330021
0.331265
0.331265
0.330012
0.330012
0.330012
0.331267
0.331259
0.330006
0.330014
0.331268
0.331272
0.331266
0.330009
0.330008
0.33001
0.330013
0.331221
0.330058
0.331247
0.331237
0.330037
0.33005
0.331233
0.331262
0.330055
0.330025
0.331259
0.330027
0.328726
0.327517
0.32873
0.328742
0.328718
0.327514
0.327503
0.327528
0.328747
0.328708
0.32874
0.327505
0.327496
0.327539
0.327504
0.328749
0.328749
0.327497
0.327496
0.327496
0.328751
0.328743
0.327489
0.327497
0.328752
0.328755
0.32875
0.327492
0.327491
0.327492
0.327495
0.328705
0.327541
0.32873
0.328719
0.327519
0.327532
0.328716
0.328745
0.327537
0.327507
0.328742
0.327508
0.326207
0.324998
0.326213
0.326224
0.326201
0.324996
0.324984
0.325009
0.32623
0.326191
0.326223
0.324987
0.324979
0.325021
0.324986
0.326232
0.326232
0.324979
0.324978
0.324978
0.326233
0.326224
0.32497
0.324978
0.326234
0.326236
0.326231
0.324974
0.324973
0.324973
0.324977
0.326186
0.325022
0.326211
0.3262
0.325
0.325013
0.326196
0.326225
0.325017
0.324987
0.326223
0.324989
0.323688
0.322478
0.323694
0.323704
0.323681
0.322476
0.322464
0.322489
0.323711
0.323671
0.323704
0.322467
0.322459
0.322501
0.322466
0.323713
0.323713
0.322459
0.322458
0.322458
0.323713
0.323705
0.32245
0.322458
0.323715
0.323716
0.323712
0.322453
0.322453
0.322453
0.322456
0.323666
0.322501
0.323691
0.32368
0.322479
0.322491
0.323676
0.323705
0.322496
0.322466
0.323702
0.322468
0.359009
0.358976
0.358415
0.358298
0.358905
0.359026
0.357784
0.359021
0.359072
0.359069
0.357774
0.357791
0.357834
0.359004
0.35905
0.359048
0.357746
0.357727
0.357833
0.357774
0.359013
0.358987
0.357703
0.357733
0.357713
0.358998
0.359003
0.357717
0.357741
0.358891
0.358907
0.358898
0.357632
0.357626
0.35764
0.357642
0.359003
0.357822
0.359057
0.359044
0.357825
0.357835
0.359014
0.359006
0.357817
0.357756
0.358965
0.357721
0.366857
0.366805
0.366104
0.36593
0.366644
0.36422
0.364161
0.363516
0.363345
0.364019
0.361603
0.361553
0.360969
0.360823
0.36145
0.366871
0.365595
0.366885
0.367041
0.36706
0.365607
0.365697
0.365758
0.366827
0.367048
0.366985
0.365562
0.365518
0.365761
0.365652
0.36691
0.366816
0.365485
0.365567
0.365487
0.366603
0.366532
0.365328
0.3653
0.366579
0.366546
0.366535
0.365307
0.365272
0.365228
0.365237
0.366676
0.365479
0.366812
0.366829
0.365534
0.365567
0.366777
0.366708
0.365522
0.365405
0.366649
0.365363
0.364231
0.362972
0.364243
0.36434
0.364349
0.36297
0.363026
0.363078
0.364198
0.364335
0.364295
0.362934
0.362898
0.363079
0.362989
0.36423
0.364164
0.36286
0.362915
0.36286
0.364078
0.364051
0.362803
0.362806
0.363984
0.363961
0.363955
0.362718
0.362696
0.362678
0.362682
0.364109
0.362926
0.364195
0.364194
0.362948
0.362967
0.364147
0.364101
0.362929
0.362834
0.364053
0.362796
0.36162
0.36037
0.361619
0.36169
0.361691
0.360359
0.360394
0.36044
0.36159
0.361674
0.361655
0.360328
0.360301
0.36044
0.360367
0.361603
0.361559
0.360268
0.360309
0.360274
0.361544
0.36154
0.360266
0.360285
0.361425
0.361428
0.361418
0.360167
0.360153
0.360157
0.360158
0.361557
0.360377
0.36162
0.36161
0.360386
0.360398
0.361571
0.361547
0.360369
0.360294
0.361502
0.360256
0.305423
0.302899
0.306031
0.304819
0.306036
0.306047
0.306024
0.304816
0.304805
0.30483
0.306056
0.306047
0.304791
0.304799
0.306007
0.304841
0.306032
0.306021
0.304819
0.304831
0.303507
0.302295
0.303512
0.303523
0.303499
0.302292
0.30228
0.302305
0.303531
0.303523
0.302266
0.302274
0.303483
0.302317
0.303508
0.303497
0.302294
0.302307
0.303493
0.303521
0.303521
0.303528
0.302899
0.303531
0.300996
0.301003
0.300374
0.300374
0.301006
0.303528
0.303489
0.303521
0.302283
0.302274
0.302317
0.302281
0.303529
0.303529
0.302273
0.302272
0.302272
0.303532
0.303532
0.303528
0.302268
0.302267
0.302267
0.302271
0.302311
0.302281
0.303518
0.302282
0.300982
0.29977
0.300987
0.300998
0.300974
0.299767
0.299756
0.29978
0.301003
0.300964
0.300996
0.299758
0.299749
0.299792
0.299756
0.301004
0.301004
0.299748
0.299747
0.299747
0.301007
0.300998
0.299742
0.29975
0.301007
0.301007
0.301003
0.299743
0.299742
0.299742
0.299746
0.300958
0.299792
0.300983
0.300972
0.29977
0.299782
0.300968
0.300997
0.299787
0.299756
0.300994
0.299758
0.0656625
0.0656578
0.0656548
0.0650267
0.0650265
0.0656614
0.0650265
0.0650271
0.0656503
0.0656615
0.0656495
0.0656519
0.0631092
0.0631068
0.0631052
0.063112
0.062478
0.0624782
0.0631129
0.0631109
0.0624791
0.0624798
0.0631031
0.0631085
0.0631139
0.0631027
0.063105
0.0605535
0.0605521
0.0605511
0.0605566
0.0599243
0.0599257
0.06056
0.060556
0.0599266
0.0599282
0.0605511
0.0579973
0.0579966
0.0579958
0.065656
0.0656565
0.0643954
0.0643942
0.0656534
0.0643961
0.0656585
0.0656605
0.06565
0.0643904
0.0643939
0.0643941
0.0644037
0.0656601
0.0656518
0.0656601
0.0643928
0.0643914
0.064401
0.0643926
0.0656592
0.0643975
0.0643943
0.0656475
0.0656493
0.0656543
0.0643943
0.0644101
0.0644078
0.0644046
0.0656537
0.0656603
0.0656445
0.064408
0.0644062
0.0643979
0.0644159
0.0656489
0.0656474
0.0656536
0.0643949
0.0644078
0.0644105
0.0644044
0.0656598
0.0656527
0.0656437
0.0644077
0.0643975
0.0644056
0.0644153
0.0644073
0.0631026
0.0631038
0.0618402
0.0618397
0.0631016
0.0618428
0.063109
0.0631104
0.0631133
0.0618361
0.0618375
0.0618346
0.063106
0.0631086
0.0630992
0.0618357
0.06184
0.061841
0.0618515
0.06311
0.0631022
0.0631109
0.0618402
0.0618393
0.0618495
0.0618415
0.0631101
0.0618461
0.0618432
0.0631062
0.0631081
0.0618439
0.0618437
0.0631101
0.0631096
0.0631015
0.0618384
0.0618426
0.0618437
0.0618538
0.0630991
0.0631015
0.0631063
0.0618438
0.0618595
0.0618578
0.0618543
0.0631062
0.0618474
0.0631047
0.0631134
0.063113
0.0618444
0.0618524
0.0618428
0.061844
0.0631061
0.0631133
0.0630971
0.0618585
0.0618562
0.0618487
0.0618662
0.0631122
0.0618491
0.0618454
0.0631019
0.0630999
0.0631065
0.0618454
0.0618586
0.0618608
0.0618548
0.063113
0.0631057
0.0630967
0.0618586
0.0618486
0.0618563
0.061866
0.061858
0.0605464
0.0605482
0.0592838
0.0592836
0.0605465
0.0592867
0.0605528
0.0605544
0.060558
0.0592801
0.0592818
0.0592788
0.0605509
0.0605538
0.0605449
0.0592797
0.0592841
0.0592853
0.0592965
0.0605556
0.0605484
0.0605575
0.0592845
0.0592839
0.0592948
0.0592869
0.0605567
0.0592906
0.0592885
0.0605503
0.0605526
0.0592884
0.059288
0.0605557
0.0605546
0.0605473
0.0592827
0.059287
0.0592879
0.0592983
0.060546
0.0605491
0.0605537
0.0592897
0.0593051
0.0593042
0.0593004
0.0605509
0.0592914
0.060551
0.0605595
0.0605602
0.0592885
0.0592976
0.0592878
0.0592897
0.0605539
0.0605617
0.0605451
0.0593054
0.0593027
0.0592959
0.059313
0.0579904
0.0579921
0.0567286
0.0567284
0.0579907
0.0567322
0.0579964
0.0579978
0.0580013
0.0567239
0.0567249
0.0567224
0.057995
0.0579978
0.0579894
0.0567242
0.0567291
0.0567294
0.0567401
0.058
0.0579931
0.0580021
0.0567297
0.0567284
0.0567395
0.0567316
0.0580018
0.0567353
0.0567332
0.0605547
0.0605617
0.0605512
0.0605534
0.0580001
0.0573698
0.0573713
0.0580052
0.0580006
0.0573722
0.0573738
0.057997
0.057999
0.0580069
0.0579972
0.0579997
0.0554431
0.0554419
0.0554441
0.0554442
0.0554428
0.0554511
0.0554411
0.055443
0.0605594
0.0592938
0.0592911
0.0605501
0.0605475
0.0605546
0.0592915
0.0593053
0.0593067
0.0593014
0.0605619
0.0605542
0.0605453
0.059306
0.0592961
0.0593033
0.0593133
0.0593054
0.0579941
0.0579964
0.0567314
0.0567314
0.0579991
0.0579982
0.0579916
0.0567258
0.0567304
0.0567315
0.0567424
0.0579911
0.0579946
0.0579991
0.0567345
0.0567499
0.056749
0.0567451
0.0579952
0.0567353
0.057996
0.0580039
0.058005
0.0567325
0.0567416
0.0567315
0.0567339
0.0579995
0.0580077
0.0579908
0.0567501
0.0567473
0.0567405
0.0567574
0.0580042
0.0567383
0.0567357
0.0579956
0.0579926
0.0580001
0.056736
0.05675
0.0567512
0.056746
0.0580078
0.0579999
0.0579911
0.0567508
0.0567407
0.0567479
0.0567577
0.0567499
0.0554367
0.0554385
0.0554368
0.0554418
0.0554423
0.055446
0.0554405
0.0554431
0.0554343
0.0554376
0.055438
0.0554405
0.0554431
0.055442
0.0554357
0.055439
0.0554397
0.0554474
0.055449
0.0554483
0.0554397
0.0554367
0.0554441
0.0554517
0.0554437
0.0554347
0.141356
0.141354
0.14135
0.141353
0.140727
0.140727
0.141356
0.141349
0.140725
0.140726
0.141342
0.141345
0.141352
0.141341
0.141341
0.138823
0.138822
0.138818
0.13882
0.138197
0.138198
0.138824
0.138816
0.138196
0.138196
0.138811
0.138812
0.13882
0.13881
0.138811
0.136302
0.136302
0.136298
0.136299
0.135677
0.135679
0.136305
0.136295
0.135676
0.135677
0.136292
0.136292
0.1363
0.13629
0.136291
0.133792
0.133792
0.133789
0.13379
0.133167
0.133169
0.133795
0.133787
0.133168
0.133169
0.133783
0.133785
0.133792
0.133781
0.133783
0.141349
0.141351
0.140098
0.140098
0.141349
0.1401
0.141354
0.141353
0.141357
0.140092
0.14009
0.140088
0.141353
0.141354
0.141346
0.140092
0.140097
0.140094
0.140105
0.141356
0.141349
0.141357
0.140097
0.140095
0.140103
0.140095
0.141355
0.1401
0.140096
0.141346
0.141348
0.140094
0.140093
0.141353
0.14135
0.141344
0.140089
0.140093
0.140093
0.140103
0.141339
0.141343
0.141345
0.140094
0.140108
0.140106
0.140101
0.141344
0.140094
0.141345
0.141351
0.141353
0.140091
0.140099
0.140089
0.14009
0.141343
0.141352
0.141333
0.140104
0.140101
0.140093
0.14011
0.14135
0.140093
0.140091
0.14134
0.141335
0.141342
0.14009
0.140103
0.140103
0.140098
0.141351
0.141341
0.141332
0.140103
0.140093
0.140099
0.140109
0.140102
0.138817
0.138819
0.137571
0.137571
0.138817
0.137574
0.138821
0.13882
0.138825
0.137564
0.137562
0.137561
0.138821
0.138822
0.138814
0.137565
0.13757
0.137567
0.137578
0.138824
0.138817
0.138826
0.13757
0.137568
0.137576
0.137568
0.138823
0.137573
0.13757
0.138813
0.138814
0.137566
0.137565
0.138821
0.138816
0.138811
0.137561
0.137565
0.137565
0.137575
0.138808
0.138812
0.138814
0.137567
0.137582
0.137579
0.137576
0.138811
0.137567
0.138813
0.138818
0.138821
0.137564
0.137571
0.137562
0.137563
0.138812
0.138821
0.138802
0.137578
0.137576
0.137567
0.137584
0.138818
0.137567
0.137564
0.138809
0.138804
0.138811
0.137563
0.137576
0.137578
0.137573
0.13882
0.13881
0.138801
0.137577
0.137567
0.137574
0.137583
0.137576
0.136296
0.136299
0.135056
0.135056
0.136297
0.135059
0.1363
0.136299
0.136303
0.135049
0.135048
0.135045
0.1363
0.136301
0.136293
0.13505
0.135054
0.13505
0.135061
0.136304
0.136296
0.136305
0.135055
0.135053
0.13506
0.135052
0.136303
0.135059
0.135055
0.136292
0.136293
0.135052
0.135051
0.136299
0.136295
0.136289
0.135047
0.135049
0.13505
0.135058
0.136289
0.136292
0.136295
0.135052
0.135068
0.135064
0.135062
0.13629
0.135053
0.136292
0.136298
0.1363
0.135049
0.135055
0.135047
0.135047
0.136293
0.136301
0.136283
0.135063
0.135062
0.135052
0.13507
0.136297
0.135053
0.13505
0.136289
0.136284
0.136292
0.135048
0.135061
0.135064
0.135059
0.136301
0.136291
0.136282
0.135061
0.135052
0.13506
0.135069
0.135062
0.133787
0.133789
0.13255
0.13255
0.133787
0.132554
0.13379
0.133789
0.133793
0.132544
0.132543
0.13254
0.13379
0.133791
0.133782
0.132544
0.132548
0.132544
0.132554
0.133794
0.133786
0.133795
0.132549
0.132547
0.132553
0.132546
0.133793
0.132553
0.132549
0.133784
0.133785
0.132549
0.132547
0.133789
0.133786
0.133779
0.132542
0.132543
0.132546
0.132552
0.13378
0.133782
0.133786
0.132547
0.132563
0.132559
0.132557
0.133783
0.132551
0.133783
0.13379
0.133791
0.132546
0.132551
0.132544
0.132542
0.133785
0.133793
0.133775
0.132558
0.132558
0.132547
0.132566
0.133789
0.13255
0.132546
0.13378
0.133776
0.133783
0.132544
0.132556
0.13256
0.132555
0.133792
0.133783
0.133773
0.132557
0.132547
0.132556
0.132565
0.132557
0.131286
0.131288
0.130053
0.130052
0.131286
0.130055
0.131291
0.13129
0.131287
0.13129
0.130666
0.130667
0.131293
0.131287
0.130666
0.130668
0.131281
0.131285
0.131291
0.13128
0.131281
0.128795
0.128793
0.128789
0.128794
0.128169
0.128171
0.128796
0.128792
0.12817
0.128171
0.128784
0.128789
0.128795
0.128784
0.128785
0.1263
0.126298
0.126294
0.126301
0.125675
0.125675
0.126299
0.126298
0.125675
0.125675
0.126288
0.126295
0.1263
0.126288
0.126288
0.123804
0.123801
0.123796
0.123805
0.123178
0.123178
0.123802
0.123803
0.123179
0.123178
0.12379
0.123799
0.123803
0.123791
0.123791
0.120677
0.1213
0.120678
0.120677
0.121289
0.121303
0.121289
0.121289
0.13129
0.13129
0.131293
0.130046
0.130046
0.130042
0.13129
0.131289
0.131281
0.130046
0.13005
0.130045
0.130055
0.131293
0.131284
0.131293
0.13005
0.130049
0.130053
0.130046
0.131291
0.130055
0.13005
0.131285
0.131286
0.130052
0.130051
0.131289
0.131287
0.131279
0.130045
0.130045
0.130049
0.130054
0.131278
0.131281
0.131285
0.130047
0.130064
0.130059
0.130058
0.131283
0.130053
0.131281
0.13129
0.13129
0.130049
0.130052
0.130047
0.130044
0.131283
0.131291
0.131274
0.130058
0.130058
0.130048
0.130067
0.131289
0.130052
0.130048
0.131279
0.131276
0.131283
0.130045
0.130058
0.130062
0.130057
0.131291
0.131282
0.131273
0.130058
0.130048
0.130058
0.130067
0.130059
0.128789
0.128791
0.127557
0.127556
0.128789
0.127559
0.128794
0.128794
0.128797
0.127551
0.127551
0.127548
0.128792
0.128793
0.128783
0.127551
0.127555
0.12755
0.12756
0.128795
0.128787
0.128796
0.127555
0.127552
0.127558
0.12755
0.128793
0.127558
0.127553
0.128789
0.12879
0.127557
0.127556
0.128792
0.128791
0.128783
0.127551
0.12755
0.127554
0.12756
0.128781
0.128783
0.128787
0.12755
0.127567
0.127563
0.127561
0.128788
0.127559
0.128786
0.128794
0.128795
0.127554
0.127557
0.127552
0.12755
0.128786
0.128794
0.128777
0.127562
0.127562
0.127552
0.127571
0.128793
0.127558
0.127553
0.128783
0.12878
0.128787
0.12755
0.127563
0.127567
0.127561
0.128794
0.128786
0.128777
0.127562
0.127552
0.127562
0.127571
0.127562
0.126295
0.126296
0.125062
0.125061
0.126294
0.125064
0.1263
0.1263
0.126303
0.125057
0.125057
0.125054
0.126297
0.126298
0.126289
0.125056
0.12506
0.125056
0.125065
0.1263
0.126291
0.1263
0.125059
0.125056
0.125063
0.125054
0.126298
0.125062
0.125057
0.126295
0.126296
0.125063
0.125062
0.126298
0.126297
0.126289
0.125057
0.125056
0.12506
0.125066
0.126284
0.126287
0.12629
0.125054
0.12507
0.125066
0.125064
0.126294
0.125064
0.126291
0.1263
0.1263
0.12506
0.125063
0.125058
0.125055
0.126289
0.126298
0.12628
0.125066
0.125065
0.125056
0.125074
0.126298
0.125063
0.125058
0.126288
0.126285
0.126291
0.125055
0.125067
0.125071
0.125065
0.126298
0.12629
0.126281
0.125066
0.125056
0.125066
0.125074
0.125066
0.123798
0.123799
0.122564
0.122562
0.123797
0.122565
0.123804
0.123805
0.123807
0.122559
0.12256