/*--------------------------------*- C++ -*----------------------------------*\
  =========                 |
  \\      /  F ield         | OpenFOAM: The Open Source CFD Toolbox
   \\    /   O peration     | Website:  https://openfoam.org
    \\  /    A nd           | Version:  9
     \\/     M anipulation  |
\*---------------------------------------------------------------------------*/
FoamFile
{
    format      ascii;
    class       volScalarField;
    location    "0";
    object      V;
}
// * * * * * * * * * * * * * * * * * * * * * * * * * * * * * * * * * * * * * //

dimensions      [0 3 0 0 0 0 0];

internalField   nonuniform List<scalar> 
132485
(
4.16953e-11
4.63157e-11
1.34459e-11
4.17024e-11
3.57184e-10
3.61909e-10
4.98678e-11
4.63153e-11
3.6175e-10
3.51767e-10
4.06995e-11
1.34444e-11
4.98601e-11
4.04939e-11
2.28557e-11
4.16953e-11
4.63156e-11
1.34459e-11
4.17024e-11
3.57184e-10
3.61909e-10
4.98678e-11
4.63153e-11
3.6175e-10
3.51767e-10
4.06995e-11
1.34444e-11
4.98601e-11
4.04939e-11
2.28557e-11
4.16953e-11
4.63157e-11
1.34459e-11
4.17024e-11
3.57184e-10
3.61909e-10
4.98677e-11
4.63153e-11
3.6175e-10
3.51767e-10
4.06995e-11
1.34444e-11
4.98601e-11
4.04939e-11
2.28557e-11
4.16953e-11
4.63157e-11
1.34459e-11
4.17024e-11
3.57184e-10
3.61909e-10
4.98678e-11
4.63153e-11
3.6175e-10
3.51767e-10
4.06995e-11
1.34444e-11
4.98601e-11
4.04939e-11
2.28557e-11
4.16952e-11
4.63157e-11
1.34459e-11
4.17024e-11
3.57184e-10
3.61909e-10
4.98678e-11
4.63153e-11
3.6175e-10
3.51767e-10
4.06996e-11
1.34444e-11
4.98601e-11
4.04939e-11
2.28557e-11
4.16952e-11
4.63157e-11
1.34459e-11
4.17023e-11
3.57181e-10
3.61909e-10
4.98679e-11
4.63153e-11
3.6175e-10
3.51768e-10
4.06996e-11
1.34444e-11
4.98602e-11
4.0494e-11
2.28557e-11
4.16949e-11
4.63155e-11
1.34455e-11
4.17021e-11
3.57169e-10
3.61905e-10
4.98696e-11
4.63151e-11
3.61746e-10
3.51769e-10
4.07e-11
1.3444e-11
4.98619e-11
4.04944e-11
2.28558e-11
1.37078e-11
2.09727e-11
1.5342e-11
1.53431e-11
1.37078e-11
2.09727e-11
1.37078e-11
2.09727e-11
1.5342e-11
1.5342e-11
2.35298e-11
2.35324e-11
4.7624e-11
2.35298e-11
2.35324e-11
4.7624e-11
3.76658e-11
4.18783e-11
4.13174e-11
4.16953e-11
3.76658e-11
4.18783e-11
4.13174e-11
3.37032e-11
4.15834e-11
4.10294e-11
4.63157e-11
3.37032e-11
4.15834e-11
4.10294e-11
3.41722e-11
1.34459e-11
3.41722e-11
1.37089e-11
2.0974e-11
1.37089e-11
2.0974e-11
4.19012e-11
3.76675e-11
4.13097e-11
4.17024e-11
4.19012e-11
3.76675e-11
4.13097e-11
1.80609e-11
4.16809e-11
2.84472e-11
4.98678e-11
1.80609e-11
4.16809e-11
2.84472e-11
1.53431e-11
1.53431e-11
4.15793e-11
3.36982e-11
4.10227e-11
4.63153e-11
4.15793e-11
3.36982e-11
4.10227e-11
2.73755e-11
4.4067e-11
1.55478e-11
4.06995e-11
2.73755e-11
4.4067e-11
1.55478e-11
3.41655e-11
1.34444e-11
3.41655e-11
4.16622e-11
1.80607e-11
2.84455e-11
4.986e-11
4.16622e-11
1.80607e-11
2.84455e-11
4.43332e-11
2.73635e-11
1.55557e-11
4.04939e-11
4.43332e-11
2.73635e-11
1.55557e-11
2.28557e-11
1.37078e-11
2.09727e-11
1.37078e-11
2.09727e-11
1.5342e-11
1.5342e-11
2.35298e-11
2.35324e-11
4.7624e-11
2.35298e-11
2.35324e-11
4.7624e-11
3.76658e-11
4.18783e-11
4.13173e-11
4.16953e-11
3.76658e-11
4.18783e-11
4.13174e-11
3.37032e-11
4.15834e-11
4.10294e-11
4.63157e-11
3.37032e-11
4.15834e-11
4.10294e-11
3.41722e-11
1.34459e-11
3.41722e-11
1.37089e-11
2.0974e-11
1.37089e-11
2.0974e-11
4.19012e-11
3.76675e-11
4.13097e-11
4.17024e-11
4.19012e-11
3.76675e-11
4.13097e-11
1.80609e-11
4.16809e-11
2.84472e-11
4.98678e-11
1.80609e-11
4.16809e-11
2.84472e-11
1.53431e-11
1.53431e-11
4.15793e-11
3.36982e-11
4.10227e-11
4.63153e-11
4.15793e-11
3.36982e-11
4.10227e-11
2.73755e-11
4.4067e-11
1.55478e-11
4.06995e-11
2.73755e-11
4.4067e-11
1.55478e-11
3.41655e-11
1.34444e-11
3.41655e-11
4.16622e-11
1.80607e-11
2.84455e-11
4.98601e-11
4.16622e-11
1.80607e-11
2.84455e-11
4.43332e-11
2.73635e-11
1.55557e-11
4.04939e-11
4.43331e-11
2.73635e-11
1.55557e-11
2.28557e-11
1.37078e-11
2.09727e-11
1.37078e-11
2.09727e-11
1.5342e-11
1.5342e-11
2.35298e-11
2.35324e-11
4.7624e-11
2.35298e-11
2.35324e-11
4.7624e-11
3.76658e-11
4.18783e-11
4.13174e-11
4.16953e-11
3.76658e-11
4.18783e-11
4.13174e-11
3.37032e-11
4.15834e-11
4.10293e-11
4.63157e-11
3.37032e-11
4.15834e-11
4.10294e-11
3.41722e-11
1.34459e-11
3.41722e-11
1.37089e-11
2.0974e-11
1.37089e-11
2.0974e-11
4.19012e-11
3.76675e-11
4.13097e-11
4.17024e-11
4.19012e-11
3.76675e-11
4.13097e-11
1.80609e-11
4.16809e-11
2.84472e-11
4.98678e-11
1.80609e-11
4.16809e-11
2.84472e-11
1.53431e-11
1.53431e-11
4.15793e-11
3.36982e-11
4.10227e-11
4.63153e-11
4.15793e-11
3.36982e-11
4.10227e-11
2.73755e-11
4.4067e-11
1.55478e-11
4.06995e-11
2.73755e-11
4.4067e-11
1.55478e-11
3.41655e-11
1.34444e-11
3.41655e-11
4.16622e-11
1.80607e-11
2.84455e-11
4.98601e-11
4.16622e-11
1.80607e-11
2.84455e-11
4.43332e-11
2.73635e-11
1.55557e-11
4.04939e-11
4.43332e-11
2.73635e-11
1.55557e-11
2.28557e-11
1.37078e-11
2.09727e-11
1.37078e-11
2.09727e-11
1.5342e-11
1.5342e-11
2.35298e-11
2.35324e-11
4.7624e-11
2.35298e-11
2.35324e-11
4.7624e-11
3.76658e-11
4.18783e-11
4.13174e-11
4.16953e-11
3.76658e-11
4.18783e-11
4.13173e-11
3.37032e-11
4.15834e-11
4.10294e-11
4.63157e-11
3.37032e-11
4.15834e-11
4.10294e-11
3.41722e-11
1.34459e-11
3.41722e-11
1.37089e-11
2.0974e-11
1.37089e-11
2.0974e-11
4.19012e-11
3.76675e-11
4.13097e-11
4.17024e-11
4.19012e-11
3.76675e-11
4.13097e-11
1.80609e-11
4.16809e-11
2.84472e-11
4.98678e-11
1.80609e-11
4.16809e-11
2.84472e-11
1.53431e-11
1.53431e-11
4.15793e-11
3.36982e-11
4.10227e-11
4.63153e-11
4.15793e-11
3.36982e-11
4.10227e-11
2.73755e-11
4.4067e-11
1.55478e-11
4.06996e-11
2.73755e-11
4.4067e-11
1.55478e-11
3.41655e-11
1.34444e-11
3.41655e-11
4.16622e-11
1.80607e-11
2.84455e-11
4.98601e-11
4.16622e-11
1.80607e-11
2.84455e-11
4.43332e-11
2.73635e-11
1.55557e-11
4.0494e-11
4.43332e-11
2.73635e-11
1.55557e-11
2.28557e-11
1.37078e-11
2.09727e-11
1.37078e-11
2.09727e-11
1.5342e-11
1.5342e-11
2.35298e-11
2.35324e-11
4.7624e-11
2.35298e-11
2.35324e-11
4.76239e-11
3.76658e-11
4.18782e-11
4.13173e-11
4.16952e-11
3.76658e-11
4.18782e-11
4.13173e-11
3.37032e-11
4.15834e-11
4.10294e-11
4.63157e-11
3.37032e-11
4.15834e-11
4.10294e-11
3.41722e-11
1.34459e-11
3.41722e-11
1.37089e-11
2.0974e-11
1.37089e-11
2.0974e-11
4.19012e-11
3.76675e-11
4.13097e-11
4.17023e-11
4.19012e-11
3.76675e-11
4.13096e-11
1.80609e-11
4.16809e-11
2.84472e-11
4.98678e-11
1.80609e-11
4.16809e-11
2.84472e-11
1.53431e-11
1.53431e-11
4.15793e-11
3.36982e-11
4.10227e-11
4.63153e-11
4.15793e-11
3.36982e-11
4.10227e-11
2.73755e-11
4.4067e-11
1.55478e-11
4.06996e-11
2.73755e-11
4.4067e-11
1.55478e-11
3.41655e-11
1.34444e-11
3.41655e-11
4.16622e-11
1.80607e-11
2.84455e-11
4.98601e-11
4.16622e-11
1.80607e-11
2.84455e-11
4.43332e-11
2.73635e-11
1.55557e-11
4.0494e-11
4.43332e-11
2.73635e-11
1.55557e-11
2.28558e-11
1.37078e-11
2.09727e-11
1.37078e-11
2.09727e-11
1.5342e-11
1.5342e-11
2.35298e-11
2.35324e-11
4.76239e-11
2.35298e-11
2.35324e-11
4.76237e-11
3.76658e-11
4.18781e-11
4.13172e-11
4.16951e-11
3.76657e-11
4.18779e-11
4.1317e-11
3.37033e-11
4.15834e-11
4.10295e-11
4.63157e-11
3.37035e-11
4.15832e-11
4.10297e-11
3.41722e-11
1.34459e-11
3.41723e-11
1.37089e-11
2.0974e-11
1.37089e-11
2.0974e-11
4.19011e-11
3.76674e-11
4.13096e-11
4.17022e-11
4.19009e-11
3.76673e-11
4.13093e-11
1.80609e-11
4.1681e-11
2.84472e-11
4.98682e-11
1.80609e-11
4.16812e-11
2.84472e-11
1.53431e-11
1.53431e-11
4.15793e-11
3.36982e-11
4.10228e-11
4.63153e-11
4.15792e-11
3.36985e-11
4.1023e-11
2.73755e-11
4.4067e-11
1.55478e-11
4.06997e-11
2.73755e-11
4.4067e-11
1.55478e-11
3.41656e-11
1.34444e-11
3.41656e-11
4.16623e-11
1.80608e-11
2.84455e-11
4.98605e-11
4.16625e-11
1.80608e-11
2.84456e-11
4.43332e-11
2.73635e-11
1.55557e-11
4.04941e-11
4.43332e-11
2.73636e-11
1.55557e-11
2.28558e-11
1.37078e-11
2.09727e-11
1.37077e-11
2.09727e-11
1.5342e-11
1.53421e-11
2.35297e-11
2.35323e-11
4.76234e-11
2.35296e-11
2.35322e-11
4.76229e-11
3.76655e-11
4.18774e-11
4.13163e-11
4.16946e-11
3.7665e-11
4.18765e-11
4.13147e-11
3.3705e-11
4.15823e-11
4.10308e-11
4.63121e-11
3.37162e-11
4.15756e-11
4.10365e-11
3.41721e-11
1.3441e-11
3.41683e-11
1.37089e-11
2.0974e-11
1.37088e-11
2.0974e-11
4.19004e-11
3.76671e-11
4.13086e-11
4.17017e-11
4.18994e-11
3.76666e-11
4.1307e-11
1.8061e-11
4.16818e-11
2.84473e-11
4.98773e-11
1.80612e-11
4.16836e-11
2.84476e-11
1.53431e-11
1.53432e-11
4.15782e-11
3.36999e-11
4.10241e-11
4.63118e-11
4.15716e-11
3.37111e-11
4.10298e-11
2.73756e-11
4.40671e-11
1.55479e-11
4.07004e-11
2.73757e-11
4.40672e-11
1.55479e-11
3.41654e-11
1.34395e-11
3.41617e-11
4.16631e-11
1.80609e-11
2.84457e-11
4.98696e-11
4.16649e-11
1.8061e-11
2.84459e-11
4.43333e-11
2.73636e-11
1.55558e-11
4.04948e-11
4.43334e-11
2.73637e-11
1.55558e-11
2.28558e-11
4.16937e-11
4.63113e-11
1.34406e-11
4.17008e-11
3.57174e-10
3.61897e-10
4.98785e-11
4.6311e-11
3.61737e-10
3.51769e-10
4.07006e-11
1.3439e-11
4.98708e-11
4.0495e-11
2.28558e-11
1.37077e-11
2.09728e-11
1.37074e-11
2.09734e-11
1.53421e-11
1.5342e-11
2.35293e-11
2.35319e-11
4.76218e-11
2.35286e-11
2.35312e-11
4.76193e-11
3.76667e-11
4.18749e-11
4.13166e-11
4.1689e-11
3.76783e-11
4.18685e-11
4.13306e-11
3.37173e-11
4.15738e-11
4.10371e-11
4.63068e-11
3.37164e-11
4.15675e-11
4.10359e-11
3.41679e-11
1.34405e-11
3.41678e-11
1.37087e-11
2.09741e-11
1.37085e-11
2.09747e-11
4.18979e-11
3.76683e-11
4.1309e-11
4.16961e-11
4.18914e-11
3.768e-11
4.1323e-11
1.80612e-11
4.16841e-11
2.84476e-11
4.98784e-11
1.80612e-11
4.16841e-11
2.84476e-11
1.53432e-11
1.53431e-11
4.15697e-11
3.37123e-11
4.10304e-11
4.63064e-11
4.15634e-11
3.37113e-11
4.10292e-11
2.73757e-11
4.40673e-11
1.55479e-11
4.07005e-11
2.73757e-11
4.40672e-11
1.55479e-11
3.41613e-11
1.34389e-11
3.41612e-11
4.16654e-11
1.80611e-11
2.8446e-11
4.98707e-11
4.16654e-11
1.80611e-11
2.8446e-11
4.43335e-11
2.73638e-11
1.55558e-11
4.04949e-11
4.43335e-11
2.73638e-11
1.55558e-11
2.28558e-11
6.15028e-11
3.9348e-11
8.48499e-10
7.21197e-10
4.57202e-11
6.17187e-11
3.92395e-11
6.14442e-11
8.57726e-10
7.25376e-10
4.58101e-11
6.53067e-11
9.72462e-11
9.77168e-11
6.16955e-11
6.52912e-11
9.7547e-11
9.79979e-11
1.05633e-10
6.35758e-11
3.93037e-11
1.05812e-10
6.3641e-11
1.89683e-11
1.89761e-11
4.72873e-11
4.58177e-11
4.72239e-11
5.76144e-11
6.61665e-11
5.76943e-11
6.64971e-11
6.12607e-11
4.72555e-11
6.15029e-11
4.70537e-11
1.79072e-11
1.76497e-11
3.33589e-11
3.57896e-11
1.02638e-10
3.33666e-11
3.57761e-11
1.02662e-10
6.52354e-11
9.76776e-11
9.80656e-11
6.17148e-11
6.51925e-11
9.77097e-11
9.8028e-11
1.0577e-10
6.35985e-11
3.91971e-11
1.05673e-10
6.3553e-11
1.8963e-11
1.89524e-11
9.67164e-11
3.64675e-11
1.00056e-10
6.13899e-11
9.66919e-11
3.6396e-11
9.99039e-11
4.71548e-11
4.57894e-11
4.71018e-11
3.22109e-11
3.21222e-11
5.75872e-11
6.64261e-11
5.7468e-11
6.62959e-11
6.13847e-11
4.68732e-11
6.12429e-11
4.67475e-11
1.75555e-11
1.75112e-11
6.16573e-11
3.30942e-11
3.57894e-11
1.02087e-10
3.33175e-11
3.58078e-11
1.02521e-10
9.61789e-11
3.6993e-11
9.99415e-11
6.15291e-11
9.66232e-11
3.66303e-11
1.00196e-10
3.27285e-11
3.239e-11
6.51592e-11
3.33689e-11
7.2425e-10
8.56735e-10
9.66106e-11
6.51592e-11
3.33689e-11
7.2425e-10
8.56735e-10
9.66106e-11
6.51592e-11
3.33689e-11
7.2425e-10
8.56735e-10
9.66106e-11
6.51592e-11
3.33688e-11
7.2425e-10
8.56735e-10
9.66106e-11
6.51592e-11
3.33688e-11
7.2425e-10
8.56735e-10
9.66106e-11
6.51592e-11
3.33689e-11
7.24249e-10
8.56735e-10
9.66106e-11
6.51592e-11
3.33688e-11
8.56735e-10
9.66106e-11
1.89449e-11
1.89448e-11
3.91665e-11
6.35121e-11
1.0559e-10
3.91665e-11
6.35121e-11
1.0559e-10
6.17073e-11
9.79801e-11
9.7699e-11
6.51592e-11
6.17073e-11
9.79801e-11
9.7699e-11
1.02651e-10
3.57619e-11
3.33688e-11
1.02651e-10
3.57619e-11
4.57674e-11
4.70529e-11
4.57674e-11
4.70529e-11
6.13312e-11
9.9725e-11
3.63359e-11
9.66106e-11
6.13312e-11
9.9725e-11
3.63359e-11
1.74787e-11
1.74787e-11
4.66307e-11
6.10734e-11
4.66307e-11
6.10734e-11
6.61236e-11
5.73351e-11
6.61236e-11
5.73351e-11
3.20496e-11
3.20496e-11
1.89449e-11
1.89449e-11
3.91665e-11
6.35121e-11
1.0559e-10
3.91665e-11
6.35121e-11
1.0559e-10
6.17073e-11
9.79801e-11
9.7699e-11
6.51592e-11
6.17073e-11
9.79801e-11
9.7699e-11
1.02651e-10
3.5762e-11
3.33688e-11
1.02651e-10
3.57619e-11
4.57674e-11
4.70529e-11
4.57674e-11
4.70529e-11
6.13312e-11
9.9725e-11
3.63358e-11
9.66106e-11
6.13312e-11
9.9725e-11
3.63359e-11
1.74787e-11
1.74787e-11
4.66307e-11
6.10734e-11
4.66307e-11
6.10734e-11
6.61236e-11
5.73351e-11
6.61236e-11
5.73351e-11
3.20496e-11
3.20496e-11
1.89449e-11
1.89448e-11
3.91665e-11
6.35121e-11
1.0559e-10
3.91665e-11
6.35121e-11
1.0559e-10
6.17073e-11
9.79801e-11
9.7699e-11
6.51592e-11
6.17073e-11
9.79801e-11
9.7699e-11
1.02651e-10
3.57619e-11
3.33689e-11
1.02651e-10
3.57619e-11
4.57674e-11
4.70529e-11
4.57674e-11
4.70529e-11
6.13312e-11
9.9725e-11
3.63359e-11
9.66106e-11
6.13312e-11
9.9725e-11
3.63358e-11
1.74787e-11
1.74787e-11
4.66307e-11
6.10734e-11
4.66307e-11
6.10734e-11
6.61236e-11
5.73351e-11
6.61236e-11
5.73351e-11
3.20496e-11
3.20496e-11
1.89449e-11
1.89449e-11
3.91665e-11
6.35121e-11
1.0559e-10
3.91665e-11
6.35121e-11
1.0559e-10
6.17073e-11
9.79801e-11
9.7699e-11
6.51592e-11
6.17073e-11
9.79801e-11
9.7699e-11
1.02651e-10
3.57619e-11
3.33689e-11
1.02651e-10
3.5762e-11
4.57674e-11
4.70529e-11
4.57674e-11
4.70529e-11
6.13312e-11
9.9725e-11
3.63359e-11
9.66106e-11
6.13312e-11
9.9725e-11
3.63359e-11
1.74787e-11
1.74787e-11
4.66307e-11
6.10734e-11
4.66307e-11
6.10734e-11
6.61236e-11
5.73351e-11
6.61236e-11
5.73351e-11
3.20496e-11
3.20496e-11
1.89448e-11
1.89449e-11
3.91665e-11
6.35121e-11
1.0559e-10
3.91665e-11
6.35121e-11
1.0559e-10
6.17073e-11
9.79801e-11
9.7699e-11
6.51592e-11
6.17073e-11
9.79801e-11
9.7699e-11
1.02651e-10
3.57619e-11
3.33689e-11
1.02651e-10
3.57619e-11
4.57674e-11
4.70529e-11
4.57674e-11
4.70529e-11
6.13312e-11
9.9725e-11
3.63359e-11
9.66106e-11
6.13312e-11
9.9725e-11
3.63358e-11
1.74787e-11
1.74787e-11
4.66307e-11
6.10734e-11
4.66307e-11
6.10734e-11
6.61236e-11
5.73351e-11
6.61236e-11
5.73351e-11
3.20496e-11
3.20496e-11
1.89448e-11
1.89448e-11
3.91665e-11
6.35121e-11
1.0559e-10
3.91665e-11
6.35121e-11
1.0559e-10
6.17073e-11
9.79801e-11
9.7699e-11
6.51592e-11
6.17073e-11
9.79801e-11
9.7699e-11
1.02651e-10
3.5762e-11
3.33689e-11
1.02651e-10
3.57619e-11
4.57674e-11
4.70529e-11
4.57674e-11
4.70529e-11
6.13312e-11
9.9725e-11
3.63359e-11
9.66106e-11
6.13312e-11
9.9725e-11
3.63358e-11
1.74787e-11
1.74787e-11
4.66307e-11
6.10734e-11
4.66307e-11
6.10734e-11
6.61236e-11
5.73351e-11
6.61236e-11
5.73351e-11
3.20496e-11
3.20496e-11
6.17073e-11
9.79801e-11
9.7699e-11
6.51592e-11
6.17073e-11
9.79801e-11
9.7699e-11
1.02651e-10
3.57619e-11
3.33689e-11
1.02651e-10
3.5762e-11
6.13312e-11
9.9725e-11
3.63359e-11
9.66106e-11
6.13312e-11
9.9725e-11
3.63359e-11
6.61236e-11
5.73351e-11
6.61236e-11
5.73351e-11
3.20496e-11
3.20496e-11
6.51592e-11
3.33689e-11
7.24249e-10
8.56734e-10
9.66106e-11
6.51592e-11
3.33689e-11
7.2425e-10
8.56735e-10
9.66106e-11
6.51592e-11
3.33689e-11
7.2425e-10
8.56735e-10
9.66106e-11
6.51592e-11
3.33689e-11
7.24249e-10
8.56735e-10
9.66106e-11
6.51592e-11
3.33689e-11
7.2425e-10
8.56735e-10
9.66106e-11
6.51592e-11
3.33689e-11
7.2425e-10
8.56735e-10
9.66106e-11
6.51592e-11
3.33689e-11
7.2425e-10
8.56735e-10
9.66106e-11
6.51592e-11
3.33689e-11
7.2425e-10
8.56735e-10
9.66106e-11
6.51592e-11
3.33689e-11
7.2425e-10
8.56735e-10
9.66106e-11
6.51592e-11
3.33689e-11
7.2425e-10
8.56735e-10
9.66106e-11
6.51592e-11
3.33689e-11
7.2425e-10
8.56735e-10
9.66106e-11
6.51592e-11
3.33688e-11
7.2425e-10
8.56735e-10
9.66106e-11
6.51592e-11
3.33689e-11
7.2425e-10
8.56735e-10
9.66107e-11
6.51592e-11
3.33688e-11
7.2425e-10
8.56735e-10
9.66106e-11
1.89449e-11
1.89449e-11
3.91665e-11
6.35121e-11
1.0559e-10
3.91665e-11
6.35121e-11
1.0559e-10
6.17073e-11
9.79801e-11
9.7699e-11
6.51592e-11
6.17073e-11
9.79801e-11
9.7699e-11
1.02651e-10
3.57619e-11
3.33689e-11
1.02651e-10
3.57619e-11
4.57674e-11
4.70529e-11
4.57674e-11
4.70529e-11
6.13312e-11
9.97249e-11
3.63359e-11
9.66106e-11
6.13312e-11
9.9725e-11
3.63359e-11
1.74787e-11
1.74787e-11
4.66307e-11
6.10734e-11
4.66307e-11
6.10734e-11
6.61236e-11
5.73351e-11
6.61236e-11
5.73351e-11
3.20495e-11
3.20496e-11
1.89449e-11
1.89449e-11
3.91665e-11
6.35121e-11
1.0559e-10
3.91665e-11
6.35121e-11
1.0559e-10
6.17073e-11
9.79801e-11
9.7699e-11
6.51592e-11
6.17073e-11
9.79801e-11
9.7699e-11
1.02651e-10
3.57619e-11
3.33689e-11
1.02651e-10
3.57619e-11
4.57674e-11
4.70529e-11
4.57674e-11
4.70529e-11
6.13312e-11
9.9725e-11
3.63359e-11
9.66106e-11
6.13312e-11
9.9725e-11
3.63359e-11
1.74787e-11
1.74787e-11
4.66307e-11
6.10734e-11
4.66307e-11
6.10734e-11
6.61236e-11
5.73351e-11
6.61236e-11
5.73351e-11
3.20496e-11
3.20496e-11
1.89449e-11
1.89449e-11
3.91665e-11
6.35121e-11
1.0559e-10
3.91665e-11
6.35121e-11
1.0559e-10
6.17073e-11
9.79801e-11
9.7699e-11
6.51592e-11
6.17073e-11
9.79801e-11
9.7699e-11
1.02651e-10
3.57619e-11
3.33689e-11
1.02651e-10
3.57619e-11
4.57674e-11
4.70529e-11
4.57674e-11
4.70529e-11
6.13312e-11
9.9725e-11
3.63359e-11
9.66106e-11
6.13312e-11
9.9725e-11
3.63359e-11
1.74787e-11
1.74787e-11
4.66307e-11
6.10734e-11
4.66307e-11
6.10734e-11
6.61236e-11
5.73351e-11
6.61236e-11
5.73351e-11
3.20496e-11
3.20496e-11
1.89449e-11
1.89449e-11
3.91665e-11
6.35121e-11
1.0559e-10
3.91665e-11
6.35121e-11
1.0559e-10
6.17073e-11
9.79801e-11
9.7699e-11
6.51592e-11
6.17073e-11
9.79801e-11
9.7699e-11
1.02651e-10
3.57619e-11
3.33689e-11
1.02651e-10
3.57619e-11
4.57674e-11
4.70529e-11
4.57674e-11
4.70529e-11
6.13312e-11
9.9725e-11
3.63359e-11
9.66106e-11
6.13312e-11
9.9725e-11
3.63359e-11
1.74787e-11
1.74787e-11
4.66307e-11
6.10734e-11
4.66307e-11
6.10734e-11
6.61236e-11
5.73351e-11
6.61236e-11
5.73351e-11
3.20496e-11
3.20496e-11
1.89449e-11
1.89449e-11
3.91665e-11
6.35121e-11
1.0559e-10
3.91665e-11
6.35121e-11
1.0559e-10
6.17073e-11
9.79801e-11
9.7699e-11
6.51592e-11
6.17073e-11
9.79801e-11
9.7699e-11
1.02651e-10
3.57619e-11
3.33689e-11
1.02651e-10
3.57619e-11
4.57674e-11
4.70529e-11
4.57674e-11
4.70529e-11
6.13312e-11
9.9725e-11
3.63359e-11
9.66106e-11
6.13312e-11
9.9725e-11
3.63359e-11
1.74787e-11
1.74787e-11
4.66307e-11
6.10734e-11
4.66307e-11
6.10734e-11
6.61236e-11
5.73351e-11
6.61236e-11
5.73351e-11
3.20496e-11
3.20496e-11
1.89449e-11
1.89449e-11
3.91665e-11
6.35121e-11
1.0559e-10
3.91665e-11
6.35121e-11
1.0559e-10
6.17073e-11
9.79801e-11
9.7699e-11
6.51592e-11
6.17073e-11
9.79801e-11
9.7699e-11
1.02651e-10
3.57619e-11
3.33689e-11
1.02651e-10
3.57619e-11
4.57674e-11
4.70529e-11
4.57674e-11
4.70529e-11
6.13312e-11
9.9725e-11
3.63358e-11
9.66106e-11
6.13312e-11
9.9725e-11
3.63359e-11
1.74787e-11
1.74787e-11
4.66307e-11
6.10734e-11
4.66307e-11
6.10734e-11
6.61236e-11
5.73351e-11
6.61236e-11
5.73351e-11
3.20496e-11
3.20496e-11
1.89449e-11
1.89449e-11
3.91665e-11
6.35121e-11
1.0559e-10
3.91665e-11
6.35121e-11
1.0559e-10
6.17073e-11
9.79801e-11
9.7699e-11
6.51592e-11
6.17073e-11
9.79801e-11
9.7699e-11
1.02651e-10
3.57619e-11
3.33689e-11
1.02651e-10
3.57619e-11
4.57674e-11
4.70529e-11
4.57674e-11
4.70529e-11
6.13312e-11
9.9725e-11
3.63359e-11
9.66106e-11
6.13312e-11
9.9725e-11
3.63359e-11
1.74787e-11
1.74787e-11
4.66307e-11
6.10734e-11
4.66307e-11
6.10734e-11
6.61236e-11
5.73351e-11
6.61236e-11
5.73351e-11
3.20496e-11
3.20496e-11
1.89448e-11
1.89449e-11
3.91665e-11
6.35121e-11
1.0559e-10
3.91665e-11
6.35121e-11
1.0559e-10
6.17073e-11
9.79801e-11
9.7699e-11
6.51592e-11
6.17073e-11
9.79801e-11
9.7699e-11
1.02651e-10
3.57619e-11
3.33689e-11
1.02651e-10
3.57619e-11
4.57674e-11
4.70529e-11
4.57674e-11
4.70529e-11
6.13312e-11
9.9725e-11
3.63359e-11
9.66106e-11
6.13312e-11
9.9725e-11
3.63359e-11
1.74787e-11
1.74787e-11
4.66307e-11
6.10734e-11
4.66307e-11
6.10734e-11
6.61236e-11
5.73351e-11
6.61236e-11
5.73351e-11
3.20496e-11
3.20496e-11
1.89449e-11
1.89448e-11
3.91665e-11
6.35121e-11
1.0559e-10
3.91665e-11
6.35121e-11
1.0559e-10
6.17073e-11
9.79801e-11
9.7699e-11
6.51592e-11
6.17073e-11
9.79801e-11
9.7699e-11
1.02651e-10
3.57619e-11
3.33689e-11
1.02651e-10
3.57619e-11
4.57674e-11
4.70529e-11
4.57674e-11
4.70529e-11
6.13312e-11
9.9725e-11
3.63359e-11
9.66106e-11
6.13312e-11
9.9725e-11
3.63359e-11
1.74787e-11
1.74787e-11
4.66307e-11
6.10734e-11
4.66307e-11
6.10734e-11
6.61236e-11
5.73351e-11
6.61236e-11
5.73351e-11
3.20496e-11
3.20496e-11
1.89449e-11
1.89448e-11
3.91665e-11
6.35121e-11
1.0559e-10
3.91665e-11
6.35121e-11
1.0559e-10
6.17073e-11
9.79801e-11
9.7699e-11
6.51592e-11
6.17073e-11
9.79801e-11
9.7699e-11
1.02651e-10
3.57619e-11
3.33689e-11
1.02651e-10
3.57619e-11
4.57674e-11
4.70529e-11
4.57674e-11
4.70529e-11
6.13312e-11
9.9725e-11
3.63359e-11
9.66106e-11
6.13312e-11
9.9725e-11
3.63359e-11
1.74787e-11
1.74787e-11
4.66307e-11
6.10734e-11
4.66307e-11
6.10734e-11
6.61236e-11
5.73351e-11
6.61236e-11
5.73351e-11
3.20496e-11
3.20496e-11
1.89449e-11
1.89448e-11
3.91665e-11
6.35121e-11
1.0559e-10
3.91665e-11
6.35121e-11
1.0559e-10
6.17073e-11
9.79801e-11
9.7699e-11
6.51592e-11
6.17073e-11
9.79801e-11
9.7699e-11
1.02651e-10
3.57619e-11
3.33689e-11
1.02651e-10
3.5762e-11
4.57674e-11
4.70529e-11
4.57674e-11
4.70529e-11
6.13312e-11
9.9725e-11
3.63358e-11
9.66106e-11
6.13312e-11
9.9725e-11
3.63359e-11
1.74787e-11
1.74787e-11
4.66307e-11
6.10734e-11
4.66307e-11
6.10734e-11
6.61236e-11
5.73351e-11
6.61236e-11
5.73351e-11
3.20496e-11
3.20496e-11
1.89449e-11
1.89449e-11
3.91665e-11
6.35121e-11
1.0559e-10
3.91665e-11
6.35121e-11
1.0559e-10
6.17073e-11
9.79801e-11
9.7699e-11
6.51592e-11
6.17073e-11
9.79801e-11
9.7699e-11
1.02651e-10
3.57619e-11
3.33688e-11
1.02651e-10
3.57619e-11
4.57674e-11
4.70529e-11
4.57674e-11
4.70529e-11
6.13312e-11
9.9725e-11
3.63359e-11
9.66106e-11
6.13312e-11
9.9725e-11
3.63359e-11
1.74787e-11
1.74787e-11
4.66307e-11
6.10734e-11
4.66307e-11
6.10734e-11
6.61236e-11
5.73351e-11
6.61236e-11
5.73351e-11
3.20496e-11
3.20496e-11
1.89449e-11
1.89449e-11
3.91665e-11
6.35121e-11
1.0559e-10
3.91665e-11
6.35121e-11
1.0559e-10
6.17073e-11
9.79801e-11
9.7699e-11
6.51592e-11
6.17073e-11
9.79801e-11
9.7699e-11
1.02651e-10
3.5762e-11
3.33688e-11
1.02651e-10
3.57619e-11
4.57674e-11
4.70529e-11
4.57674e-11
4.70529e-11
6.13312e-11
9.9725e-11
3.63359e-11
9.66106e-11
6.13312e-11
9.9725e-11
3.63359e-11
1.74787e-11
1.74787e-11
4.66307e-11
6.10734e-11
4.66307e-11
6.10734e-11
6.61236e-11
5.73351e-11
6.61236e-11
5.73351e-11
3.20496e-11
3.20496e-11
1.89449e-11
1.89449e-11
3.91665e-11
6.35121e-11
1.0559e-10
3.91665e-11
6.35121e-11
1.0559e-10
6.17073e-11
9.79801e-11
9.7699e-11
6.51592e-11
6.17073e-11
9.79801e-11
9.7699e-11
1.02651e-10
3.57619e-11
3.33689e-11
1.02651e-10
3.5762e-11
4.57674e-11
4.70529e-11
4.57674e-11
4.70529e-11
6.13312e-11
9.9725e-11
3.63359e-11
9.66106e-11
6.13312e-11
9.9725e-11
3.63358e-11
1.74787e-11
1.74787e-11
4.66307e-11
6.10734e-11
4.66307e-11
6.10734e-11
6.61236e-11
5.73351e-11
6.61236e-11
5.73351e-11
3.20496e-11
3.20496e-11
6.51591e-11
3.33688e-11
7.24248e-10
8.56733e-10
9.66104e-11
1.89448e-11
1.89449e-11
3.91664e-11
6.3512e-11
1.0559e-10
3.91665e-11
6.35121e-11
1.0559e-10
6.17073e-11
9.798e-11
9.76989e-11
6.51591e-11
6.17073e-11
9.79801e-11
9.7699e-11
1.02651e-10
3.57619e-11
3.33689e-11
1.02651e-10
3.57619e-11
4.57674e-11
4.70528e-11
4.57674e-11
4.70529e-11
6.13311e-11
9.97246e-11
3.63358e-11
9.66105e-11
6.13312e-11
9.97249e-11
3.63358e-11
1.74786e-11
1.74786e-11
4.66305e-11
6.10731e-11
4.66307e-11
6.10733e-11
6.61233e-11
5.73348e-11
6.61235e-11
5.7335e-11
3.20494e-11
3.20495e-11
6.5171e-11
3.33683e-11
7.2456e-10
8.57128e-10
9.66534e-11
6.51592e-11
3.33686e-11
7.24269e-10
8.56768e-10
9.66156e-11
6.51589e-11
3.33688e-11
7.24244e-10
8.56729e-10
9.66102e-11
1.89472e-11
1.89452e-11
3.91769e-11
6.35278e-11
1.05627e-10
3.91689e-11
6.35163e-11
1.05602e-10
6.17104e-11
9.80073e-11
9.77107e-11
6.5162e-11
6.17079e-11
9.799e-11
9.77048e-11
1.02661e-10
3.57681e-11
3.33685e-11
1.02655e-10
3.57638e-11
4.57756e-11
4.70712e-11
4.57691e-11
4.70574e-11
6.13566e-11
9.98028e-11
3.636e-11
9.66278e-11
6.13396e-11
9.97513e-11
3.63434e-11
1.74901e-11
1.74814e-11
4.66768e-11
6.1144e-11
4.66445e-11
6.10968e-11
6.61967e-11
5.73902e-11
6.61481e-11
5.73521e-11
3.20771e-11
3.20572e-11
1.89446e-11
1.89446e-11
3.91665e-11
6.35125e-11
1.05593e-10
3.91661e-11
6.35117e-11
1.0559e-10
6.17071e-11
9.79827e-11
9.77009e-11
6.51588e-11
6.1707e-11
9.79805e-11
9.76993e-11
1.02652e-10
3.57621e-11
3.33687e-11
1.02651e-10
3.57617e-11
4.57671e-11
4.70529e-11
4.57668e-11
4.70521e-11
6.13327e-11
9.97307e-11
3.63372e-11
9.66112e-11
6.13308e-11
9.97246e-11
3.63355e-11
1.74787e-11
1.74782e-11
4.66328e-11
6.10778e-11
4.66299e-11
6.10727e-11
6.61282e-11
5.73377e-11
6.61228e-11
5.7334e-11
3.20503e-11
3.20488e-11
1.89447e-11
1.89448e-11
3.91662e-11
6.35118e-11
1.0559e-10
3.91664e-11
6.35119e-11
1.0559e-10
6.17072e-11
9.79798e-11
9.76988e-11
6.5159e-11
6.17073e-11
9.79799e-11
9.76988e-11
1.02651e-10
3.57617e-11
3.33688e-11
1.02651e-10
3.57618e-11
4.57671e-11
4.70523e-11
4.57673e-11
4.70526e-11
6.13307e-11
9.97238e-11
3.63354e-11
9.66102e-11
6.13309e-11
9.97242e-11
3.63356e-11
1.74784e-11
1.74785e-11
4.66298e-11
6.10722e-11
4.66302e-11
6.10727e-11
6.61224e-11
5.73339e-11
6.61229e-11
5.73345e-11
3.20489e-11
3.20492e-11
7.2425e-10
7.24249e-10
1.89449e-11
1.89449e-11
3.91665e-11
6.35121e-11
1.0559e-10
3.91665e-11
6.35121e-11
1.0559e-10
4.57674e-11
4.70529e-11
4.57674e-11
4.70529e-11
1.74787e-11
1.74787e-11
4.66307e-11
6.10734e-11
4.66307e-11
6.10734e-11
1.89449e-11
1.89448e-11
3.91665e-11
6.35121e-11
1.0559e-10
3.91665e-11
6.35121e-11
1.0559e-10
4.57674e-11
4.70529e-11
4.57674e-11
4.70529e-11
1.74787e-11
1.74787e-11
4.66307e-11
6.10734e-11
4.66307e-11
6.10734e-11
6.61236e-11
5.73351e-11
6.51592e-11
3.33689e-11
8.56735e-10
9.66106e-11
6.51592e-11
3.33688e-11
7.24249e-10
8.56735e-10
9.66106e-11
6.17073e-11
9.79801e-11
9.7699e-11
6.51592e-11
6.17073e-11
9.79801e-11
9.7699e-11
1.02651e-10
3.57619e-11
3.33689e-11
1.02651e-10
3.57619e-11
6.13312e-11
9.9725e-11
3.63359e-11
9.66106e-11
6.13311e-11
9.97249e-11
3.63358e-11
6.61236e-11
5.73351e-11
3.20496e-11
3.20496e-11
1.89449e-11
1.89449e-11
3.91665e-11
6.35121e-11
1.0559e-10
3.91665e-11
6.35121e-11
1.0559e-10
6.17073e-11
9.79801e-11
9.7699e-11
6.51592e-11
6.17073e-11
9.79801e-11
9.7699e-11
1.02651e-10
3.57619e-11
3.33689e-11
1.02651e-10
3.5762e-11
4.57674e-11
4.70529e-11
4.57674e-11
4.70528e-11
6.13313e-11
9.9725e-11
3.63359e-11
9.66106e-11
6.13312e-11
9.9725e-11
3.63359e-11
1.74787e-11
1.74787e-11
4.66307e-11
6.10734e-11
4.66307e-11
6.10734e-11
6.61236e-11
5.73351e-11
6.61236e-11
5.73351e-11
3.20496e-11
3.20496e-11
4.16897e-11
4.63105e-11
1.34457e-11
3.57194e-10
3.61901e-10
4.98675e-11
3.61744e-10
3.51766e-10
4.06995e-11
4.98691e-11
4.04945e-11
2.28558e-11
4.16952e-11
4.63156e-11
1.34458e-11
4.17019e-11
3.57177e-10
3.61905e-10
4.98677e-11
4.63151e-11
3.61749e-10
3.51768e-10
4.06996e-11
1.34439e-11
4.98622e-11
4.04944e-11
2.28558e-11
4.16958e-11
4.63157e-11
1.34459e-11
4.17013e-11
3.57175e-10
3.61904e-10
4.98678e-11
4.63119e-11
3.61751e-10
3.51768e-10
4.06996e-11
4.16981e-11
4.63156e-11
1.34455e-11
1.37075e-11
2.09733e-11
1.37078e-11
2.09727e-11
1.53418e-11
1.5342e-11
3.76795e-11
4.18701e-11
4.13344e-11
4.16945e-11
3.76678e-11
4.18765e-11
4.13205e-11
3.37019e-11
4.15759e-11
4.10275e-11
4.63151e-11
3.37028e-11
4.15823e-11
4.10287e-11
3.41718e-11
1.34458e-11
3.4172e-11
1.80608e-11
4.16807e-11
2.84471e-11
4.98676e-11
1.80609e-11
4.16808e-11
2.84471e-11
2.73755e-11
4.4067e-11
1.55478e-11
4.06995e-11
2.73755e-11
4.4067e-11
1.55478e-11
4.16646e-11
1.8061e-11
2.84458e-11
4.98621e-11
4.16633e-11
1.80609e-11
2.84457e-11
4.43333e-11
2.73637e-11
1.55558e-11
4.04944e-11
4.43333e-11
2.73636e-11
1.55558e-11
2.28558e-11
1.37078e-11
2.09726e-11
1.37078e-11
2.09727e-11
1.5342e-11
1.5342e-11
2.35297e-11
2.35322e-11
4.76234e-11
2.35298e-11
2.35323e-11
4.76236e-11
3.7666e-11
4.18778e-11
4.13178e-11
4.16953e-11
3.76659e-11
4.18783e-11
4.13172e-11
3.37031e-11
4.15831e-11
4.10291e-11
4.63156e-11
3.37032e-11
4.15832e-11
4.10293e-11
3.41721e-11
1.34459e-11
3.41722e-11
1.37088e-11
2.0974e-11
1.37088e-11
2.09739e-11
4.19001e-11
3.76674e-11
4.13091e-11
4.17017e-11
4.18996e-11
3.76664e-11
4.1307e-11
1.80609e-11
4.16808e-11
2.84472e-11
4.98677e-11
1.80609e-11
4.16808e-11
2.84472e-11
1.53432e-11
1.53432e-11
4.15781e-11
3.37001e-11
4.10242e-11
4.63119e-11
4.1572e-11
3.3711e-11
4.10298e-11
2.73755e-11
4.4067e-11
1.55478e-11
4.06996e-11
2.73755e-11
4.4067e-11
1.55478e-11
3.41654e-11
1.34395e-11
3.41617e-11
4.16634e-11
1.80609e-11
2.84457e-11
4.98694e-11
4.16647e-11
1.8061e-11
2.84459e-11
4.43333e-11
2.73636e-11
1.55558e-11
4.04947e-11
4.43334e-11
2.73637e-11
1.55558e-11
2.28558e-11
1.37079e-11
2.09727e-11
1.3708e-11
2.09728e-11
1.5342e-11
1.5342e-11
2.35299e-11
2.35322e-11
4.76237e-11
2.35301e-11
2.3532e-11
4.76238e-11
3.76659e-11
4.188e-11
4.13166e-11
4.16972e-11
3.76659e-11
4.18886e-11
4.13131e-11
3.37032e-11
4.15831e-11
4.10293e-11
4.63157e-11
3.37035e-11
4.1583e-11
4.10296e-11
3.41722e-11
1.34459e-11
3.41722e-11
1.37088e-11
2.09739e-11
1.37087e-11
2.09739e-11
4.1898e-11
3.76662e-11
4.13074e-11
4.17001e-11
4.18897e-11
3.76669e-11
4.13125e-11
1.80609e-11
4.16809e-11
2.84472e-11
4.98681e-11
1.80609e-11
4.16811e-11
2.84472e-11
1.53432e-11
1.53431e-11
4.15722e-11
3.3711e-11
4.10298e-11
4.63151e-11
4.15784e-11
3.36999e-11
4.10241e-11
2.73755e-11
4.4067e-11
1.55478e-11
4.06997e-11
2.73755e-11
4.4067e-11
1.55478e-11
1.3708e-11
2.09728e-11
1.3708e-11
2.09727e-11
1.53421e-11
1.53422e-11
2.35302e-11
2.35319e-11
4.76238e-11
2.35301e-11
2.35321e-11
4.76237e-11
3.76656e-11
4.18956e-11
4.13095e-11
4.16969e-11
3.76649e-11
4.18879e-11
4.13105e-11
3.37049e-11
4.15824e-11
4.10307e-11
4.63123e-11
3.3716e-11
4.1576e-11
4.10363e-11
3.4172e-11
1.3441e-11
3.41682e-11
1.34395e-11
4.98693e-11
4.04946e-11
2.28558e-11
4.16992e-11
3.57175e-10
3.61901e-10
4.98694e-11
4.63152e-11
3.61754e-10
3.51769e-10
4.06999e-11
1.34444e-11
4.98606e-11
4.04941e-11
2.28558e-11
4.16956e-11
4.63122e-11
4.17016e-11
4.63153e-11
1.34444e-11
4.98602e-11
4.0494e-11
2.28558e-11
3.41617e-11
1.3444e-11
3.41654e-11
4.16647e-11
1.8061e-11
2.84459e-11
4.9862e-11
4.16631e-11
1.80608e-11
2.84457e-11
4.43334e-11
2.73637e-11
1.55558e-11
4.04943e-11
4.43333e-11
2.73636e-11