/*--------------------------------*- C++ -*----------------------------------*\
  =========                 |
  \\      /  F ield         | OpenFOAM: The Open Source CFD Toolbox
   \\    /   O peration     | Website:  https://openfoam.org
    \\  /    A nd           | Version:  9
     \\/     M anipulation  |
\*---------------------------------------------------------------------------*/
FoamFile
{
    format      ascii;
    class       volScalarField;
    location    "11.99997246/FluidRegion";
    object      T;
}
// * * * * * * * * * * * * * * * * * * * * * * * * * * * * * * * * * * * * * //

dimensions      [0 0 0 1 0 0 0];

internalField   nonuniform List<scalar> 
132485
(
299.956091589
299.946333144
299.987713729
299.956071432
300.001120314
300.000983991
299.973345698
299.946327923
300.00097768
300.000918213
299.947889177
299.987712596
299.973358887
299.947693546
299.980962528
299.95599533
299.946223895
299.987653318
299.955984134
300.000855467
300.000744707
299.973235341
299.946226724
300.000740192
300.000694836
299.947730915
299.987654191
299.973249863
299.94755015
299.980889818
299.955908276
299.946137512
299.987580983
299.95590887
300.000623013
300.000540552
299.973133299
299.946134609
300.000536347
300.000506671
299.947619993
299.98758199
299.973144751
299.947428956
299.980801907
299.955824013
299.946037463
299.987489009
299.955811493
300.000413745
300.000364866
299.973007687
299.946042474
300.000365359
300.000350142
299.94749765
299.987490487
299.973030678
299.947310934
299.980688009
299.955782774
299.9459909
299.98747275
299.955762206
300.000211852
300.000200869
299.972950819
299.945977338
300.000219523
300.000230581
299.947400098
299.987474143
299.97296237
299.947220604
299.980668766
299.95571772
299.945923838
299.987423856
299.955707226
299.999976783
299.999831352
299.9728158
299.945958323
300.000032106
300.000037208
299.947295216
299.987431502
299.972877049
299.947118245
299.980607304
299.955700309
299.945917176
299.987428613
299.95568187
299.999959475
300.000167938
299.97209225
299.945992813
300.000471334
300.00001997
299.947143152
299.987433922
299.972173055
299.946974968
299.980507952
300.013310888
300.020597045
300.015966238
300.015950533
299.987648722
299.980510044
300.013231107
300.020506743
299.985128852
300.015874333
299.988951862
299.988944777
299.990949521
300.011985091
300.011981924
300.010463743
299.945275338
299.982855231
299.964324459
300.045219177
300.056522542
300.018768191
300.037659417
299.949229167
299.967312073
299.980143214
300.055371033
300.052005579
300.034691334
300.021191196
299.984702195
300.013288165
300.016526058
299.987622828
299.980512176
300.01322331
300.020491886
299.982850738
299.945279191
299.964357597
300.045221184
300.018776205
300.056499814
300.037607479
299.967519552
299.94823814
299.935008036
300.028011586
300.033565765
300.053657772
300.066521274
299.985121115
300.01586588
299.967369282
299.949217457
299.980162971
300.055364471
300.034605407
300.052015071
300.021155209
299.934922024
299.968448629
299.967324497
300.053575466
300.066524985
300.032820887
300.03379776
299.98471153
300.013284841
300.016509262
299.948313749
299.967525873
299.935021132
300.027990623
300.05356898
300.033556377
300.066501973
299.968106286
299.93497084
299.967203284
300.053748374
300.03314765
300.066456283
300.033914065
300.020358136
299.987595925
299.980455816
300.01318588
300.020455432
299.985072675
300.015845496
299.988887631
299.98888882
299.990845836
300.011928415
300.011936842
300.010368281
299.945155069
299.982692356
299.964135845
300.045133334
300.0564176
300.018617475
300.037485751
299.949146913
299.967132629
299.980000452
300.055308142
300.051956536
300.034532402
300.021068025
299.984625126
300.013240177
300.016461042
299.987587747
299.980453457
300.013180638
300.020441019
299.982694357
299.945163402
299.964173442
300.045140358
300.018616804
300.056394582
300.037435061
299.967485919
299.948088173
299.934932566
300.027917431
300.033540406
300.053527908
300.066467654
299.98506756
300.015833604
299.967195218
299.949139542
299.980024166
300.055277595
300.034446118
300.051952011
300.021032538
299.934853383
299.968339369
299.967297558
300.053445214
300.066469806
300.032716849
300.033759616
299.984636041
300.013250977
300.016448963
299.94816832
299.967493861
299.934958289
300.027897312
300.053442435
300.033532018
300.066458484
299.968002158
299.934918086
299.967178855
300.053636509
300.033059964
300.066406621
300.033879627
300.020310933
299.987536244
299.980387769
300.013117844
300.020379483
299.985006424
300.015754069
299.988821165
299.988819054
299.990749518
300.011860639
300.011858989
300.010273647
299.94505117
299.982549948
299.963973513
300.045044938
300.056312968
300.018482401
300.037330826
299.949071562
299.966983657
299.979880762
300.055197142
300.051862099
300.03438635
300.020944628
299.984541136
300.01315771
300.016361551
299.987528528
299.980386582
300.013113938
300.020367501
299.982550063
299.945060476
299.964011898
300.045051665
300.018478976
300.056292272
300.037280631
299.967408332
299.947966567
299.934857036
300.027799794
300.033422212
300.053400872
300.06635854
299.985001304
300.015746116
299.967045668
299.949061429
299.97990459
300.0551792
300.034302184
300.051861571
300.020911239
299.934769671
299.968234886
299.967212524
300.053324121
300.066359431
300.032610413
300.033643487
299.984552299
300.013153482
300.016343051
299.948030649
299.967413943
299.934862317
300.027766561
300.053309013
300.033410363
300.066336797
299.967900209
299.934822592
299.967093227
300.053509452
300.032940906
300.066293496
300.033761756
300.020193259
299.987458425
299.980315234
300.013069028
300.020324359
299.984921108
300.015698385
299.98875049
299.988746614
299.990672041
300.011809828
300.011812052
300.010212139
299.944962264
299.982435717
299.96383066
300.044986226
300.056231727
300.018385356
300.037213828
299.948981237
299.96684523
299.979752402
300.05511743
300.051794531
300.034263878
300.020841883
299.984443771
300.013097127
300.016286432
299.987462864
299.980325416
300.013063149
300.020312884
299.982419414
299.944973435
299.963865503
300.044976279
300.018369462
300.056212348
300.037139811
299.967305625
299.947841998
299.934749411
300.027692326
300.033353107
300.053288284
300.066282734
299.984929867
300.015690899
299.966910085
299.948974449
299.979790007
300.055097713
300.034174996
300.051786723
300.020811669
299.934657682
299.968119118
299.967082923
300.053203556
300.066280749
300.032519492
300.033571833
299.984452977
300.013093053
300.016273545
299.947921223
299.967301662
299.934763865
300.027689104
300.053210407
300.033346876
300.066265835
299.967784019
299.934722992
299.966978959
300.053406976
300.032850676
300.066220494
300.033691021
300.02011874
299.987445651
299.980294501
300.013046669
300.0202984
299.984908813
300.015678049
299.988724238
299.988719349
299.990610123
300.011781161
300.011774553
300.010143464
299.94490102
299.982342819
299.963822152
300.044930367
300.056170248
300.018275022
300.037102087
299.948930728
299.966747107
299.9796805
300.055064234
300.051738235
300.034145981
300.020752371
299.98440472
300.013072231
300.016243218
299.987437082
299.980281921
300.013043298
300.020280153
299.982318626
299.944879907
299.963723579
300.044938653
300.018259421
300.056118405
300.036990025
299.967288079
299.947743606
299.93471946
300.02763048
300.03334033
300.053194504
300.06626662
299.984902332
300.015671008
299.966789732
299.94893136
299.979707792
300.055048469
300.034057601
300.051759497
300.020730482
299.934629294
299.968068888
299.967087994
300.05312805
300.066261523
300.032479224
300.033578796
299.984408008
300.013082924
300.016237393
299.947839919
299.967296381
299.934737623
300.027624231
300.053111867
300.033344326
300.066237189
299.967728522
299.934694162
299.96696861
300.05331846
300.032792356
300.066191156
300.033685283
300.020103783
299.987400036
299.980229635
300.012994454
300.020223813
299.984862038
300.015619248
299.988680214
299.988676749
299.990536998
300.01172893
300.011732483
300.010094065
299.944792126
299.982214608
299.96354028
300.044880558
300.056023268
300.018173736
300.036862248
299.94886304
299.966564809
299.979555621
300.055018353
300.051660442
300.033931331
300.020605773
299.984333688
300.013000317
300.016126728
299.987398687
299.980237403
300.012991085
300.020219307
299.982217421
299.944797867
299.963564904
300.044875865
300.018176062
300.056020481
300.036849139
299.967222799
299.947599677
299.934648756
300.027375028
300.03321576
300.052975109
300.066143109
299.984867107
300.015629972
299.966676672
299.948872403
299.979610986
300.055070022
300.03406669
300.051688708
300.020652047
299.934561399
299.967986291
299.967029399
300.052980188
300.066154332
300.032353174
300.033465064
299.984361949
300.013006816
300.016138167
299.947714869
299.967241495
299.934681099
300.027409087
300.052954227
300.033219986
300.066139503
299.967642576
299.934637163
299.966910571
300.053187085
300.032682112
300.066098485
300.033580446
300.019998481
299.987349132
299.980161908
300.012983047
300.020235958
299.984802522
300.01569766
299.988640287
299.988636328
299.990539743
300.011724568
300.011720653
300.010184542
299.944638806
299.982184055
299.963395641
300.044940007
300.056031722
300.018266159
300.036900676
299.948679925
299.966236569
299.979597871
300.055570224
300.051535506
300.034244984
300.020933369
299.984299399
300.012871472
300.015862337
299.987345168
299.980172771
300.012987905
300.020234355
299.982188675
299.944679899
299.963500885
300.044961589
300.01826401
300.0560439
300.036909482
299.96701818
299.947268143
299.934514879
300.027222003
300.03316777
300.052822209
300.066075785
299.984816571
300.015700658
299.966585024
299.948695911
299.979744873
300.055608514
300.034325688
300.051554527
300.021006787
299.934463891
299.967878339
299.966928133
300.052926106
300.066120658
300.032300832
300.033422329
299.98434558
300.012878576
300.015882837
299.947407123
299.967047889
299.93453481
300.027270756
300.052809694
300.033175749
300.066081592
299.967539319
299.934531738
299.96680041
300.053126385
300.032632709
300.066063602
300.033541187
300.019958341
299.95593178
299.945746035
299.987558273
299.955942476
299.999566023
299.999915531
299.97217504
299.945768639
300.000092775
300.000000523
299.947104196
299.987569807
299.972242888
299.946933985
299.980518001
299.987382197
299.980118933
300.012894372
300.020009268
299.984787117
300.015645964
299.988675144
299.988675557
299.990750343
300.011611311
300.011619686
300.010005598
299.944242159
299.982496464
299.963215092
300.044620379
300.054959687
300.017961186
300.036206256
299.949002724
299.965959587
299.979501506
300.055328708
300.051626588
300.033978427
300.020532212
299.984501743
300.012781917
300.015747996
299.987379616
299.980119577
300.012893148
300.020001406
299.982502859
299.944264304
299.963282258
300.044641496
300.017981679
300.054956375
300.036178643
299.967041468
299.947276325
299.934515971
300.027823553
300.033292818
300.053061345
300.066142942
299.984790247
300.015639263
299.966010961
299.949021287
299.9795957
300.055313851
300.033920576
300.05163682
300.020551135
299.934457661
299.967852977
299.966939991
300.052981053
300.066145114
300.032320566
300.033448261
299.984539616
300.012785125
300.015751361
299.947428821
299.967061904
299.934548912
300.027847444
300.053029087
300.033294143
300.066129272
299.967518074
299.934520083
299.966822128
300.053186252
300.032666867
300.06608625
300.033569829
300.019976059
379.591486321
362.632550901
478.653178433
464.385002175
413.139060299
354.095375094
338.966434029
410.532607896
468.142804918
449.544932017
385.376994144
375.439827849
446.977964633
446.111684957
364.513489919
360.26859769
434.621849111
434.387409781
424.120507082
397.195331259
347.252460627
409.873723858
381.524629248
391.804586261
372.207787649
430.917788215
395.80719407
414.911118333
460.913891693
463.576127179
450.177590006
452.743478545
459.978698073
451.949773528
448.224269653
438.318520497
438.336912907
421.265348289
351.857040855
387.43307827
403.015338057
344.840924686
378.728071708
392.726321014
349.86822614
422.950364574
422.257430098
346.442857178
342.595908184
412.39935697
412.334717495
396.710652852
370.200689895
333.165267498
386.608020757
361.3206728
362.619016667
355.131341642
440.162499241
424.508647497
444.720130862
401.553298521
430.237505673
416.444090476
436.247985225
404.76291205
376.964479037
396.101981196
434.667499979
426.766942953
441.045686459
442.520302663
432.677174568
434.272313033
437.566845225
428.227680665
429.056259054
419.708729492
411.926509374
403.832473056
432.369116812
372.224330622
409.168134247
428.496857818
360.512650743
397.184312566
414.801933671
461.970412898
442.228411601
463.028267804
420.536551745
450.536782585
433.017263823
453.189485148
451.52056034
442.68752443
302.298465965
301.818685977
313.631862917
319.62225909
310.352330486
302.003103741
301.563749373
311.91658501
317.213293368
309.031319373
301.746065008
301.36816837
310.414759178
315.089956758
307.878409815
301.518654351
301.179414338
309.099431766
313.218585291
306.865772008
301.320421562
301.016497913
307.944538593
311.570972804
305.978892105
301.146546204
300.888640958
306.934958176
310.121633116
305.207972448
300.993737378
300.765530708
308.848172499
304.532594163
302.129216041
302.05717303
301.466099692
303.156105859
305.43474058
301.481524146
303.063795445
305.373228424
302.381260824
308.527545685
308.352518793
302.265824778
302.296853602
308.325603949
307.91656178
305.40984095
303.416977346
301.715783871
305.077585367
303.209682159
304.032033755
305.109885261
303.936538986
304.955839123
305.487401154
310.251696693
306.449318094
309.722095263
305.207311886
309.630796275
306.1319591
304.933621442
304.711813252
306.774387028
307.912432465
306.499279224
307.709894352
308.783850477
308.691673052
308.577062515
308.285041111
307.502030474
307.096117715
301.819208311
301.763026454
301.27896189
302.739360156
304.740079881
301.294610819
302.668312444
304.71135158
302.071678502
307.462980664
307.309140825
301.98614067
302.005893367
307.309918153
306.932864757
304.697375339
302.914176291
301.480299487
304.41370248
302.745080569
303.475802551
304.392247297
303.406424095
304.270891398
304.736208349
308.932436696
305.676211796
308.480889048
304.484861789
308.366922858
305.243924414
304.180351995
304.002214071
305.780089854
306.830252765
305.576495139
306.655269208
307.563526516
307.481195448
307.414693204
307.137900096
306.413427079
306.055052931
301.595818992
301.513258171
301.105072487
302.386442295
304.12999539
301.131486042
302.326066815
304.1308193
301.808434471
306.525338151
306.392957305
301.744064057
301.757368639
306.416180035
306.069953399
304.092700763
302.554633085
301.278651428
303.841534848
302.351333358
303.028022503
303.831569078
302.951593141
303.685781451
304.11551731
307.763120723
304.843981963
307.398979898
303.877885596
307.298630285
304.607104142
303.679831872
303.403564213
305.025806687
305.858745576
304.791305614
305.736885268
306.545365843
306.517398852
306.428878622
306.249981632
305.633394228
305.336112435
301.362093108
301.334335766
300.953696799
302.068132775
303.594455902
300.996046066
302.038580793
303.624011389
301.572289962
305.700383414
305.587784352
301.52983327
301.536755082
305.630262271
305.312590505
303.557504739
302.184486664
301.120291118
303.350592214
302.06292765
302.603443644
303.282974368
302.586817849
303.230359763
303.534687369
306.737768122
304.13209286
306.452156414
303.374904251
306.319365041
303.928540177
303.118060218
303.003889038
304.293706387
305.015891664
304.190858837
305.013091901
305.623965141
305.616428433
305.612341292
305.390634734
304.809478101
304.548488005
301.195793206
301.146580864
300.823155547
301.804601841
303.127607908
300.871898603
301.779421787
303.179432965
301.364967135
304.97541229
304.881215698
301.34163571
301.342071618
304.939655602
304.647193991
303.093261739
301.868731291
300.967574984
302.914504899
301.766184514
302.247033115
302.818711256
302.242167217
302.787563835
303.036628792
305.820921914
303.511832319
305.619644808
302.905481766
305.465765176
303.352482925
302.645398441
302.556141499
303.679740493
304.350955433
303.607145414
304.346091981
304.884804448
304.858952213
304.870823376
304.64792145
304.092741834
303.87795593
301.021295518
301.009357557
300.714256474
301.561909508
302.717810164
300.769383518
301.558840854
302.790810117
301.188166595
304.338820139
304.261868805
301.17883661
301.173187988
304.333466256
304.063987871
302.693873554
301.638221636
300.835996187
302.536047828
301.514013576
301.94999031
302.454923724
301.94892842
302.409520823
302.643310036
305.058468251
303.082960316
304.8970937
302.516057727
304.757119183
302.954852004
302.327905497
302.17678721
303.197135933
303.72416793
303.103317374
303.749078581
304.182385176
304.176264047
304.205552729
303.997703534
303.579344075
303.318634059
301.030065403
303.779892172
303.718209891
301.034733784
301.028252775
303.801206967
303.553114016
302.33961556
301.400928509
300.732415661
302.210648866
301.328300537
302.26908325
304.384631505
302.629417437
304.266612221
302.190974575
304.128235456
302.523378822
303.573582522
303.574979866
303.675493032
303.488093412
303.048007901
302.916542238
315.643194869
315.025071489
383.371129353
406.790649502
367.383955494
313.369241292
312.484607253
373.679906922
395.9904081
358.885388568
311.531652046
310.515388019
364.989511607
385.975358333
351.484245332
310.035888958
309.089820318
357.267001803
376.785610204
345.089288739
308.753771825
307.738084532
350.456292214
368.395781928
339.506359186
307.648419079
306.625436516
344.392155934
360.777089229
334.574155431
306.702122378
305.794819459
339.043017937
353.903222845
330.290360392
305.871245157
304.975593258
334.318047755
347.721205636
326.534296929
305.141281673
304.284060842
330.127816774
342.18399941
323.219046017
304.51103985
303.755985253
326.441347868
337.239017939
320.35264198
303.945621569
303.233495891
323.177685382
332.831569558
317.801749695
303.44980786
302.78847397
320.311599068
328.911060898
315.550063254
303.019290103
302.445030581
317.798546451
325.432157132
313.58614807
302.635599464
302.107515862
315.581141832
322.349440904
311.866140448
318.597952758
317.332761264
311.089254113
323.168707225
336.391570905
310.275593299
321.660221989
334.392730523
316.769845039
352.798990909
352.644834359
314.60387023
315.535481892
350.008614272
349.181738586
338.958350239
330.401145793
313.537086512
335.94964412
327.244746436
332.411815238
342.8441738
329.957244975
339.247536028
344.506547304
373.31417071
355.774606548
363.049550497
341.193449576
368.285206151
350.546583696
346.136752823
341.336993177
357.878124322
364.912497078
353.130733813
360.391655835
369.704495416
369.353875479
365.172278047
364.253622293
364.206570953
358.435104685
316.005459622
315.015274014
309.351969071
319.912397396
331.351309227
308.848296937
318.746063235
329.811623058
314.304616435
345.883301951
345.645476281
312.574647253
313.330816256
343.668457148
342.810880582
333.241177305
325.231499876
311.606860244
330.922858309
323.474227214
327.52853402
336.162601769
325.961091237
334.024771547
338.171547781
363.648811441
346.999626809
355.140681321
335.073260116
359.331815999
342.639475864
338.415259353
336.081797181
349.090674463
355.606433504
346.124104907
352.401328233
360.063372761
359.645759562
356.737291063
356.009820648
354.556179099
351.12639244
313.365135876
312.534127161
307.972356047
317.093879791
327.19206574
307.577110936
316.089775493
325.93907886
312.277458606
340.107026418
339.801008186
310.927241456
311.52912353
338.304516492
337.420798125
328.570207411
321.133980061
309.787480149
326.582987408
319.645271669
323.474121972
330.731678878
322.083684534
328.864864538
332.429934679
355.200809376
339.708199109
348.292932173
330.343043907
351.723758734
337.366137141
332.140289581
330.144687155
341.804595899
347.726122828
339.153865981
344.891922177
351.781368167
351.326963943
348.853838466
348.120220892
346.341576778
343.468881207
311.188436966
310.545345953
306.836356017
314.674570653
323.658863018
306.527121986
313.872589438
322.640672979
310.636413909
335.187376409
334.826742342
309.524993533
309.994533092
333.692140758
332.803228801
324.614263079
317.735741021
308.325031135
322.952311158
316.557766577
319.990646894
326.424897286
318.89208555
324.609916303
327.802607135
348.307317345
334.870888497
342.295489574
325.916102152
345.011151027
331.729041749
326.933886819
325.306221907
335.925994783
341.299637847
333.373391384
338.557574628
344.958598807
344.65912801
342.128798611
341.390509218
340.570791469
336.956113476
309.773228379
309.243789472
305.954341421
312.775940849
320.665987534
305.658868313
312.129799793
319.835387925
309.250973318
330.9411322
330.552783731
308.343021845
308.715892606
329.688230173
328.819353399
321.357492019
315.437470389
307.248324491
319.925590669
314.026880606
317.407073339
322.714241103
316.545844885
321.510568531
324.065629331
341.870372438
329.511076731
337.037491215
322.191440544
338.953372868
326.858043316
323.589776729
322.245548483
330.847396711
335.377745154
329.097632536
333.471058362
338.632593185
338.277071181
336.59899334
335.816564377
334.386637293
331.349699598
308.277232865
307.820766707
305.147168678
311.079390404
318.082065528
304.956875048
310.507439679
317.390279437
308.048941027
327.241896433
326.845140432
307.313687841
307.617578805
326.18003667
325.353288386
318.544147572
313.085191335
306.212061922
317.383795045
312.286331126
314.978456773
319.450412657
314.219762836
318.402908362
320.575368628
336.232184583
325.008565405
332.461050767
319.321950233
333.930721077
323.525158591
319.873264002
318.735864361
326.365860077
330.390984879
324.825387794
328.734010598
333.270886157
332.868206994
331.533585778
330.89674995
329.172450804
327.425112491
307.014502203
306.643142372
304.462507054
309.580818392
315.825416049
304.30779281
309.115855493
315.251994766
307.031475724
323.995365051
323.619938448
306.414575515
306.653665174
323.090563479
322.317252303
316.222186795
311.478218716
305.345316712
315.160180032
310.467377077
313.019656291
316.959899854
312.250282291
315.785733172
317.705972361
331.462524424
321.289924693
328.427820162
316.575201892
329.444438769
319.996603068
317.446790143
315.821360335
322.933219223
326.344591985
321.242876094
324.725988521
328.872212541
328.493699834
327.202280477
326.577579222
324.876768978
323.321981864
306.136652726
305.667700874
303.904435653
308.365533938
313.864470574
303.754248435
307.930296619
313.387749343
306.152537429
321.134031896
320.777371338
305.639867378
305.846353984
320.363042581
319.637874748
314.111915372
309.746828949
304.6773239
313.192779296
308.892577828
311.211978697
314.502787126
310.685304327
313.797762971
315.392448247
327.451894378
318.663624851
324.891753923
314.252801659
325.667757299
317.061886595
314.708870119
313.911991836
319.548464465
322.564690014
318.504184342
321.448150985
324.785261491
324.543401972
323.420366859
322.930644366
321.821097446
320.496436276
305.22042883
304.970746457
303.387119417
307.261697213
312.142012242
303.300663933
306.941582603
311.757945633
305.374461373
318.605687731
318.269172001
304.953115672
305.110948076
317.950523648
317.275964617
312.280943228
308.303160595
304.028306975
311.528644966
307.814377608
309.659295643
312.446606764
309.235328715
311.843137166
313.208590502
323.854107329
315.878939935
321.812206902
312.462679218
322.357982097
314.972946181
312.432631041
311.760489871
316.725762719
319.376914465
315.822830719
318.448623203
321.287257766
321.074804538
320.336372879
319.913682951
318.588606391
317.489009452
304.455190089
304.243381414
302.96886654
306.313045268
310.63740851
302.879228383
306.04402342
310.324018926
304.71063874
316.371910459
316.065233228
304.348821503
304.471217088
315.817076443
315.194135113
310.752376766
307.30852032
303.477944269
310.064606584
306.683957178
308.413256531
310.866573662
307.975115788
310.181336004
311.546329904
320.76094451
313.557355553
319.100924132
310.74242591
319.418318807
312.760174768
310.934030234
309.959732243
314.560186056
316.799038268
313.559366716
315.891942848
318.390305556
318.39250697
317.553923721
317.166355194
316.292962499
314.909402271
303.909326368
303.732881001
302.577786826
305.525081453
309.316063811
302.531964048
305.308334441
309.070209516
304.108334315
314.394873744
314.113538593
303.822470662
303.91399833
313.928700263
313.350616081
309.363470511
306.22183103
303.046104697
308.764471172
305.693343095
307.244225732
309.284955058
306.887342785
308.719988592
309.931248468
318.072377516
311.909807524
316.699014744
309.247003827
316.922772467
311.234453999
309.222042366
308.413761148
312.388177855
314.372687598
311.553930665
313.621776222
315.898943621
315.76817279
315.12611567
314.712715614
313.851157696
312.682598368
303.336651306
303.196127499
302.237541471
304.809640486
308.154159193
302.210168038
304.62232142
307.961497553
303.583278305
312.645989801
312.388454462
303.353947792
303.428116381
312.258304072
311.725804589
308.150390167
305.311361531
302.62826195
307.657687203
305.003721717
306.232639799
307.949930631
306.026081778
307.653764863
308.522467817
315.692675897
310.155596618
314.598616175
308.043167216
314.705432372
309.567631133
307.798674632
307.429416875
310.57003932
312.305240718
310.116486452
311.87772417
313.651402817
313.514849838
313.17772052
312.844294433
311.782530219
311.143427894
302.931443033
302.736856522
301.955898398
304.199276284
307.132668687
301.929596259
304.027733247
306.986637016
303.130605048
311.10055816
310.872425682
302.942602097
302.997454296
310.78195198
310.294391899
307.132271935
304.671681212
302.271838318
306.683315572
304.285251785
305.460826577
306.982058359
305.217253641
306.599329512
307.340913007
313.632409902
308.638832453
312.750898585
306.918304985
312.75354185
308.154393611
306.890252441
306.310775786
309.268042106
310.729235764
308.704864954
310.276180096
311.815733166
311.821473799
311.402909291
311.092198719
310.369327734
309.513750904
302.496522963
302.338299942
301.694049539
303.64090024
306.229459834
301.683939111
303.50190679
306.125917316
302.73382694
309.734267792
309.533452159
302.583250967
302.624689943
309.477335071
309.032181437
306.211991863
303.993678834
301.992228245
305.839098919
303.75933254
304.691249226
305.9705812
304.497463892
305.655935708
306.387532275
311.839387319
307.572305793
311.135048474
305.972869377
311.053649978
306.968155516
305.825027752
305.351554395
307.916626732
309.213053303
307.541987279
308.937780198
310.22497663
310.143014089
309.862114956
309.519285435
308.820286208
308.094890087
318.428182393
317.740072958
394.197713069
418.319670258
377.253457087
322.652934373
321.053417153
313.100285287
327.539742739
342.673858833
312.231503807
325.579253344
340.055590076
319.885207102
361.25149594
361.180602583
317.140665476
318.361468396
357.663108244
356.883761843
345.725058483
335.468745499
316.329582991
342.196900792
332.864928277
337.60513664
349.320440668
335.332495266
346.354702222
352.311204901
383.475616556
363.661508237
372.213968556
348.687952203
378.307461937
359.783817927
352.835139495
349.589201906
366.24879017
374.302687138
362.335441854
370.098050095
379.507733969
378.892040733
375.214698965
374.347693366
372.875401445
368.654670446
336.068156888
336.861121068
434.068319317
455.776217105
420.684438817
327.595114566
327.388961257
419.512404351
443.051989655
403.441931796
322.299396786
322.129074032
406.25844969
430.493147139
389.201477093
345.342487759
340.440009998
327.033105242
352.709629367
376.459288063
323.694398961
346.648369078
369.220872496
339.372974838
401.804611098
402.396549105
331.661067576
334.47091569
393.823996059
393.605456552
382.703078976
367.325979221
332.25552346
374.340575058
360.574607176
367.115742294
385.176581827
360.792572584
377.944991804
390.605175977
427.117907426
404.584757742
411.772793721
382.678410659
418.703016677
397.211620396
390.997556338
384.251724963
408.30527243
418.155633536
400.424347583
410.151107383
423.686488299
422.476883711
415.847410235
414.402455778
415.419683208
408.00412851
334.190451512
331.107354611
320.104331597
340.871439819
361.60322572
318.114707278
336.952683765
356.533682257
330.017184829
385.092866405
385.409447163
324.868205316
326.913212862
378.925035997
378.418848603
366.599443367
352.465831049
324.538496382
360.342949226
347.788088303
353.628091289
369.358398019
349.401500288
364.184207628
373.9695768
410.237281665
387.250483492
395.975770809
367.970350089
402.881192212
381.298041725
374.078558181
368.970602564
390.708550833
400.456108888
384.573239499
393.978885358
406.206084484
405.150997936
399.669843103
398.349953809
398.004815416
391.702223823
328.246340403
324.800435629
316.160509209
333.354932299
350.819674595
314.56596111
330.318544388
347.185261147
324.219103697
371.807712217
371.91150116
320.353570553
321.887829535
367.102510104
366.41311309
354.886622583
343.711084553
319.468225344
349.9528971
338.580986442
345.176156663
359.076202309
341.080728945
353.614918354
362.591886073
396.180858611
375.76808773
382.967455622
356.774686128
389.422419477
368.406496364
363.96132899
356.933298551
378.325829255
386.861363554
371.612340958
380.520719253
392.331772741
391.72879234
386.047535261
384.849653404
385.869135009
378.108285001
306.051438695
305.27633558
300.871342359
300.867064485
300.614232163
301.351688558
302.358631722
300.674698469
301.357521748
302.448802265
301.673826823
302.100640941
301.70553316
302.113642112
301.971820422
301.922262262
302.727066438
303.176509441
302.715683208
303.274955191
300.741616617
300.745565251
300.530472223
301.165809281
302.04334809
300.592178633
301.183378274
302.14922026
301.436775339
301.800047512
301.480737277
301.827564062
301.671638391
301.638031956
302.331012914
302.719968073
302.340378529
302.841104663
303.08989305
303.09091584
300.86106519
300.659349523
307.730225738
303.943124974
300.743927873
300.575654943
304.601177647
306.750227322
303.430008684
300.892583059
303.289374347
303.242039205
300.908559822
300.898730225
303.334231607
303.104997491
302.03221283
301.198258557
300.632852366