/*--------------------------------*- C++ -*----------------------------------*\
  =========                 |
  \\      /  F ield         | OpenFOAM: The Open Source CFD Toolbox
   \\    /   O peration     | Website:  https://openfoam.org
    \\  /    A nd           | Version:  9
     \\/     M anipulation  |
\*---------------------------------------------------------------------------*/
FoamFile
{
    format      ascii;
    class       volScalarField;
    location    "0.100014";
    object      static(p);
}
// * * * * * * * * * * * * * * * * * * * * * * * * * * * * * * * * * * * * * //

dimensions      [1 -1 -2 0 0 0 0];

internalField   nonuniform List<scalar> 
132485
(
0.180098
0.180096
0.18009
0.180098
0.179407
0.179407
0.180089
0.180096
0.179407
0.179407
0.180066
0.18009
0.180089
0.180066
0.18009
0.177278
0.177276
0.17727
0.177278
0.176586
0.176586
0.177269
0.177276
0.176586
0.176586
0.177246
0.17727
0.177269
0.177246
0.17727
0.174457
0.174455
0.174449
0.174457
0.173766
0.173766
0.174448
0.174455
0.173766
0.173766
0.174425
0.174449
0.174448
0.174425
0.174449
0.171636
0.171634
0.171629
0.171636
0.170945
0.170945
0.171627
0.171634
0.170945
0.170945
0.171605
0.171629
0.171627
0.171605
0.171628
0.168816
0.168814
0.168808
0.168816
0.168125
0.168125
0.168807
0.168814
0.168125
0.168125
0.168784
0.168808
0.168807
0.168784
0.168808
0.165995
0.165993
0.165988
0.165995
0.165304
0.165304
0.165986
0.165993
0.165304
0.165304
0.165963
0.165988
0.165986
0.165963
0.165987
0.163175
0.163173
0.163167
0.163175
0.162483
0.162484
0.163166
0.163173
0.162484
0.162484
0.163143
0.163167
0.163166
0.163143
0.163167
0.181542
0.181535
0.181544
0.181544
0.180092
0.1801
0.178722
0.178714
0.180091
0.178723
0.180103
0.180103
0.180108
0.178711
0.178711
0.178706
0.180095
0.180086
0.180065
0.178716
0.178719
0.178728
0.178749
0.180091
0.180068
0.180084
0.178718
0.178723
0.178746
0.17873
0.180104
0.178724
0.17871
0.180092
0.1801
0.178722
0.178714
0.180086
0.180095
0.180065
0.178716
0.178728
0.178719
0.178748
0.180047
0.180067
0.180079
0.178724
0.178767
0.178747
0.178736
0.180091
0.178723
0.180068
0.180091
0.180084
0.178718
0.178746
0.178723
0.17873
0.180076
0.180084
0.180034
0.178747
0.178738
0.178729
0.17878
0.180104
0.178724
0.17871
0.180067
0.180047
0.180079
0.178724
0.178747
0.178767
0.178736
0.180084
0.180076
0.180034
0.178748
0.17873
0.178738
0.17878
0.178723
0.177272
0.17728
0.175901
0.175893
0.177271
0.175903
0.177283
0.177283
0.177287
0.17589
0.17589
0.175885
0.177275
0.177265
0.177245
0.175895
0.175898
0.175907
0.175928
0.177271
0.177248
0.177263
0.175898
0.175902
0.175925
0.175909
0.177283
0.175903
0.175889
0.177272
0.17728
0.175901
0.175893
0.177265
0.177275
0.177245
0.175895
0.175907
0.175898
0.175928
0.177226
0.177246
0.177258
0.175904
0.175947
0.175927
0.175915
0.177271
0.175903
0.177248
0.177271
0.177263
0.175898
0.175925
0.175902
0.175909
0.177255
0.177264
0.177214
0.175927
0.175918
0.175909
0.175959
0.177283
0.175903
0.175889
0.177246
0.177226
0.177258
0.175904
0.175926
0.175947
0.175915
0.177263
0.177255
0.177214
0.175927
0.175909
0.175918
0.175959
0.175903
0.174451
0.174459
0.17308
0.173073
0.17445
0.173082
0.174462
0.174462
0.174467
0.173069
0.173069
0.173065
0.174454
0.174444
0.174424
0.173075
0.173078
0.173087
0.173107
0.17445
0.174427
0.174443
0.173077
0.173082
0.173105
0.173088
0.174463
0.173082
0.173069
0.174451
0.174459
0.17308
0.173073
0.174444
0.174454
0.174424
0.173075
0.173087
0.173078
0.173107
0.174406
0.174426
0.174438
0.173083
0.173126
0.173106
0.173094
0.17445
0.173082
0.174427
0.17445
0.174443
0.173077
0.173105
0.173082
0.173088
0.174435
0.174443
0.174393
0.173106
0.173097
0.173088
0.173138
0.174463
0.173082
0.173069
0.174426
0.174406
0.174438
0.173083
0.173106
0.173126
0.173094
0.174443
0.174435
0.174393
0.173106
0.173088
0.173097
0.173139
0.173082
0.171631
0.171639
0.17026
0.170252
0.171629
0.170261
0.171642
0.171642
0.171646
0.170249
0.170249
0.170244
0.171634
0.171624
0.171604
0.170254
0.170257
0.170266
0.170287
0.17163
0.171606
0.171622
0.170256
0.170261
0.170284
0.170268
0.171642
0.170262
0.170248
0.171631
0.171639
0.17026
0.170252
0.171624
0.171634
0.171604
0.170254
0.170266
0.170257
0.170287
0.171585
0.171605
0.171617
0.170263
0.170305
0.170285
0.170274
0.171629
0.170261
0.171606
0.17163
0.171622
0.170256
0.170284
0.170261
0.170268
0.171614
0.171623
0.171573
0.170286
0.170277
0.170267
0.170318
0.171642
0.170262
0.170248
0.171605
0.171585
0.171617
0.170262
0.170285
0.170305
0.170274
0.171622
0.171614
0.171572
0.170286
0.170268
0.170277
0.170318
0.170262
0.16881
0.168818
0.167439
0.167432
0.168809
0.167441
0.168821
0.168821
0.168826
0.167428
0.167428
0.167423
0.168813
0.168803
0.168783
0.167434
0.167437
0.167446
0.167466
0.168809
0.168786
0.168802
0.167436
0.16744
0.167463
0.167447
0.168821
0.167441
0.167428
0.16881
0.168818
0.167439
0.167432
0.168803
0.168813
0.168783
0.167434
0.167446
0.167437
0.167466
0.168764
0.168785
0.168797
0.167442
0.167485
0.167465
0.167453
0.168809
0.167441
0.168786
0.168809
0.168802
0.167436
0.167463
0.16744
0.167447
0.168794
0.168802
0.168752
0.167465
0.167456
0.167447
0.167497
0.168821
0.167441
0.167428
0.168785
0.168764
0.168797
0.167442
0.167465
0.167485
0.167453
0.168802
0.168794
0.168752
0.167465
0.167447
0.167456
0.167497
0.167441
0.165989
0.165997
0.164619
0.164611
0.165988
0.16462
0.166
0.166
0.166005
0.164608
0.164608
0.164603
0.165992
0.165983
0.165962
0.164613
0.164616
0.164625
0.164646
0.165988
0.165965
0.165981
0.164615
0.16462
0.164643
0.164627
0.166001
0.164621
0.164607
0.165989
0.165997
0.164619
0.164611
0.165983
0.165992
0.165963
0.164613
0.164625
0.164616
0.164646
0.165944
0.165964
0.165976
0.164621
0.164664
0.164644
0.164633
0.165988
0.16462
0.165965
0.165988
0.165981
0.164615
0.164643
0.16462
0.164627
0.165973
0.165981
0.165932
0.164645
0.164635
0.164626
0.164677
0.166001
0.164621
0.164607
0.165964
0.165944
0.165976
0.164621
0.164644
0.164664
0.164633
0.165981
0.165973
0.165931
0.164645
0.164627
0.164635
0.164677
0.164621
0.163169
0.163177
0.161798
0.16179
0.163168
0.1618
0.16318
0.16318
0.163184
0.161787
0.161787
0.161782
0.163172
0.163162
0.163142
0.161793
0.161795
0.161804
0.161825
0.163168
0.163145
0.163161
0.161795
0.161799
0.161823
0.161806
0.16318
0.1618
0.161786
0.163169
0.163177
0.161798
0.16179
0.163162
0.163172
0.163142
0.161793
0.161804
0.161795
0.161825
0.163123
0.163143
0.163155
0.161801
0.161844
0.161824
0.161812
0.163168
0.1618
0.163145
0.163168
0.163161
0.161795
0.161823
0.161799
0.161806
0.163152
0.163161
0.163111
0.161824
0.161815
0.161806
0.161856
0.16318
0.1618
0.161786
0.163143
0.163123
0.163155
0.161801
0.161824
0.161844
0.161812
0.16316
0.163152
0.163111
0.161824
0.161806
0.161815
0.161856
0.1618
0.160354
0.160352
0.160347
0.160354
0.159663
0.159663
0.160345
0.160352
0.159663
0.159663
0.160322
0.160347
0.160345
0.160322
0.160346
0.160348
0.160356
0.158977
0.15897
0.160347
0.158979
0.160359
0.160359
0.160364
0.158966
0.158966
0.158962
0.160351
0.160341
0.160321
0.158972
0.158974
0.158983
0.159004
0.160347
0.160324
0.16034
0.158974
0.158979
0.159002
0.158985
0.16036
0.158979
0.158966
0.160348
0.160356
0.158977
0.15897
0.160341
0.160351
0.160321
0.158972
0.158983
0.158974
0.159004
0.160303
0.160323
0.160335
0.158981
0.159023
0.159003
0.158992
0.160347
0.158979
0.160324
0.160347
0.16034
0.158974
0.159002
0.158979
0.158985
0.160332
0.16034
0.16029
0.159003
0.158994
0.158985
0.159035
0.16036
0.158979
0.158966
0.160323
0.160303
0.160335
0.15898
0.159003
0.159023
0.158992
0.16034
0.160332
0.16029
0.159003
0.158985
0.158994
0.159036
0.158979
0.413913
0.413925
0.412569
0.412845
0.413113
0.410876
0.410916
0.410582
0.409836
0.410139
0.410323
0.41405
0.414426
0.414599
0.412403
0.412473
0.412806
0.412972
0.414644
0.414564
0.412446
0.412978
0.412932
0.41409
0.412602
0.413014
0.411759
0.411663
0.414209
0.414402
0.412568
0.41275
0.41452
0.414343
0.412841
0.412744
0.413795
0.41241
0.410859
0.410935
0.411061
0.409372
0.409446
0.409536
0.410915
0.411184
0.411279
0.409404
0.409439
0.409677
0.409786
0.411305
0.411278
0.409513
0.409799
0.409747
0.410996
0.409556
0.41076
0.410472
0.410544
0.409127
0.409258
0.409101
0.409108
0.410272
0.40902
0.408985
0.410824
0.409335
0.410928
0.411013
0.409437
0.409567
0.411088
0.411078
0.40963
0.409609
0.410752
0.409452
0.413653
0.413875
0.413907
0.414184
0.412384
0.412452
0.412624
0.414039
0.413276
0.41374
0.41211
0.412393
0.411938
0.412107
0.414095
0.412423
0.357212
0.357219
0.356523
0.356521
0.357209
0.354421
0.354427
0.353731
0.35373
0.354417
0.351629
0.351635
0.35094
0.350939
0.351625
0.348838
0.348844
0.348148
0.348147
0.348834
0.346046
0.346052
0.345356
0.345356
0.346042
0.343255
0.343261
0.342565
0.342564
0.343251
0.340463
0.340469
0.339773
0.340459
0.357182
0.355867
0.357197
0.357201
0.357183
0.355855
0.355852
0.35587
0.357216
0.357179
0.357204
0.35584
0.355834
0.355877
0.355846
0.357221
0.357217
0.355831
0.35583
0.355832
0.357168
0.357164
0.355875
0.355877
0.35721
0.35721
0.357189
0.355838
0.355836
0.355838
0.355858
0.357131
0.355918
0.357179
0.357165
0.355874
0.355889
0.357163
0.357195
0.355891
0.355857
0.357207
0.355843
0.35439
0.353076
0.354405
0.354409
0.354392
0.353063
0.35306
0.353078
0.354424
0.354387
0.354413
0.353048
0.353043
0.353086
0.353054
0.354429
0.354426
0.353039
0.353039
0.353041
0.354377
0.354373
0.353083
0.353086
0.354418
0.354418
0.354397
0.353046
0.353044
0.353046
0.353066
0.354339
0.353127
0.354387
0.354373
0.353083
0.353098
0.354372
0.354404
0.353099
0.353065
0.354415
0.353051
0.351599
0.350284
0.351614
0.351618
0.3516
0.350271
0.350269
0.350287
0.351633
0.351595
0.351621
0.350257
0.350251
0.350294
0.350263
0.351638
0.351634
0.350248
0.350247
0.350249
0.351585
0.351581
0.350292
0.350294
0.351627
0.351626
0.351606
0.350255
0.350252
0.350255
0.350275
0.351548
0.350335
0.351595
0.351582
0.350291
0.350306
0.35158
0.351612
0.350308
0.350274
0.351624
0.35026
0.348807
0.347493
0.348822
0.348826
0.348808
0.34748
0.347477
0.347495
0.348841
0.348804
0.34883
0.347465
0.34746
0.347503
0.347471
0.348846
0.348842
0.347456
0.347455
0.347458
0.348794
0.34879
0.347501
0.347503
0.348835
0.348835
0.348814
0.347463
0.347461
0.347463
0.347483
0.348756
0.347544
0.348804
0.34879
0.3475
0.347515
0.348788
0.348821
0.347516
0.347482
0.348832
0.347468
0.346016
0.344701
0.346031
0.346035
0.346017
0.344688
0.344686
0.344703
0.34605
0.346012
0.346038
0.344674
0.344668
0.344711
0.34468
0.346055
0.346051
0.344665
0.344664
0.344666
0.346002
0.345998
0.344709
0.344712
0.346044
0.346043
0.346023
0.344671
0.344669
0.344671
0.344692
0.345964
0.344752
0.346012
0.345999
0.344708
0.344723
0.345997
0.346029
0.344725
0.344691
0.346041
0.344677
0.343224
0.34191
0.343239
0.343243
0.343225
0.341897
0.341894
0.341912
0.343258
0.343221
0.343247
0.341882
0.341877
0.34192
0.341888
0.343263
0.343259
0.341873
0.341872
0.341875
0.343211
0.343207
0.341918
0.34192
0.343252
0.343251
0.343231
0.34188
0.341878
0.34188
0.3419
0.343173
0.341961
0.343221
0.343207
0.341917
0.341932
0.343205
0.343238
0.341933
0.341899
0.343249
0.341885
0.340467
0.34043
0.340455
0.339091
0.339085
0.339128
0.339097
0.340472
0.340468
0.339082
0.339081
0.339083
0.340461
0.34046
0.34044
0.339088
0.339087
0.339088
0.339109
0.340414
0.340446
0.339142
0.339108
0.340458
0.339094
0.396382
0.396367
0.39573
0.395624
0.396312
0.393556
0.393551
0.392901
0.392822
0.393514
0.390743
0.390746
0.390082
0.390025
0.390721
0.387939
0.387945
0.387272
0.387231
0.387928
0.38514
0.385148
0.384468
0.384438
0.385135
0.382344
0.382353
0.381667
0.381645
0.382342
0.37955
0.379559
0.378869
0.378853
0.379549
0.376756
0.376765
0.376073
0.376061
0.376756
0.373964
0.373972
0.373279
0.37327
0.373963
0.371171
0.371179
0.370485
0.370478
0.37117
0.368379
0.368387
0.367692
0.367687
0.368377
0.365587
0.365594
0.364899
0.364895
0.365585
0.362796
0.362802
0.362107
0.362104
0.362792
0.360004
0.36001
0.359315
0.359313
0.36
0.396383
0.395047
0.396394
0.396411
0.396423
0.395031
0.395036
0.395081
0.39639
0.396391
0.396418
0.39499
0.394991
0.39506
0.395034
0.396405
0.396391
0.394965
0.394995
0.39499
0.396314
0.396328
0.395008
0.395025
0.396308
0.39634
0.396318
0.394932
0.394931
0.394966
0.394984
0.396344
0.395121
0.396442
0.396407
0.395114
0.395111
0.396396
0.396424
0.395103
0.395069
0.396391
0.395016
0.393549
0.392219
0.393564
0.393574
0.39358
0.392208
0.392208
0.392246
0.393566
0.393551
0.393582
0.392171
0.392172
0.39223
0.392207
0.393579
0.393571
0.392156
0.392177
0.392175
0.393499
0.393503
0.392197
0.392204
0.393513
0.393545
0.39352
0.39214
0.392137
0.392171
0.392186
0.393513
0.392292
0.393601
0.393573
0.392279
0.392281
0.393565
0.393601
0.392277
0.392248
0.393574
0.392203
0.390729
0.389405
0.390747
0.390753
0.390753
0.389395
0.389393
0.389426
0.390753
0.390728
0.390762
0.389363
0.389363
0.389415
0.389392
0.390767
0.390761
0.389353
0.389368
0.389369
0.390692
0.390689
0.389392
0.389394
0.39072
0.390749
0.390722
0.389348
0.389344
0.389375
0.389388
0.390692
0.389474
0.390772
0.390748
0.389453
0.38946
0.390742
0.390782
0.389457
0.389431
0.390763
0.389393
0.38792
0.386599
0.387938
0.387943
0.387938
0.38659
0.386587
0.386616
0.387948
0.387918
0.387951
0.386562
0.386561
0.386609
0.386585
0.387961
0.387956
0.386555
0.386566
0.386567
0.38789
0.387884
0.386593
0.386592
0.387927
0.387952
0.387924
0.386556
0.386552
0.386577
0.386591
0.38788
0.386663
0.387952
0.387931
0.386637
0.386646
0.387926
0.387966
0.386645
0.386618
0.387957
0.386588
0.385117
0.383799
0.385136
0.385139
0.385131
0.383789
0.383786
0.383812
0.385148
0.385115
0.385147
0.383765
0.383763
0.383809
0.383783
0.38516
0.385156
0.383759
0.383766
0.383768
0.385093
0.385085
0.383797
0.383796
0.385134
0.385154
0.385127
0.383764
0.383759
0.383779
0.383793
0.385074
0.383859
0.385139
0.385121
0.383827
0.383839
0.385117
0.385156
0.383838
0.38381
0.385154
0.383785
0.382318
0.381002
0.382337
0.38234
0.382329
0.380992
0.380988
0.381011
0.382351
0.382316
0.382347
0.38097
0.380967
0.381012
0.380984
0.382362
0.382357
0.380964
0.380969
0.380971
0.382298
0.38229
0.381003
0.381002
0.382342
0.382356
0.38233
0.380971
0.380966
0.380982
0.380997
0.382273
0.381058
0.382333
0.382316
0.381023
0.381036
0.382313
0.38235
0.381036
0.381006
0.382354
0.380986
0.379522
0.378207
0.37954
0.379544
0.37953
0.378196
0.378193
0.378214
0.379555
0.37952
0.379549
0.378176
0.378172
0.378217
0.378188
0.379566
0.379561
0.37817
0.378173
0.378175
0.379504
0.379497
0.37821
0.378209
0.379549
0.379559
0.379534
0.378178
0.378174
0.378185
0.378201
0.379475
0.378261
0.379531
0.379515
0.378223
0.378236
0.379512
0.379548
0.378237
0.378206
0.379555
0.378188
0.376728
0.375413
0.376745
0.376749
0.376734
0.375402
0.375398
0.375419
0.376761
0.376725
0.376753
0.375383
0.375379
0.375423
0.375393
0.376771
0.376766
0.375377
0.375379
0.37538
0.376711
0.376705
0.375417
0.375418
0.376756
0.376763
0.376739
0.375384
0.375381
0.37539
0.375406
0.376679
0.375466
0.376732
0.376717
0.375425
0.37544
0.376715
0.376749
0.37544
0.375408
0.376759
0.375393
0.373935
0.37262
0.373951
0.373955
0.373939
0.372608
0.372605
0.372624
0.373968
0.373932
0.373959
0.372591
0.372586
0.37263
0.3726
0.373977
0.373972
0.372584
0.372585
0.372586
0.373919
0.373913
0.372625
0.372626
0.373963
0.373968
0.373944
0.372591
0.372588
0.372595
0.372612
0.373885
0.372672
0.373936
0.373922
0.37263
0.372645
0.373919
0.373953
0.372645
0.372613
0.373964
0.372598
0.371142
0.369827
0.371158
0.371162
0.371145
0.369815
0.369812
0.369831
0.371176
0.371139
0.371166
0.369799
0.369794
0.369837
0.369806
0.371183
0.371179
0.369791
0.369791
0.369793
0.371127
0.371121
0.369833
0.369835
0.37117
0.371173
0.371151
0.369798
0.369795
0.369801
0.369819
0.371091
0.369879
0.371141
0.371127
0.369836
0.369851
0.371125
0.371158
0.369852
0.369818
0.371169
0.369804
0.368349
0.367035
0.368365
0.368369
0.368352
0.367023
0.36702
0.367038
0.368383
0.368346
0.368373
0.367007
0.367001
0.367045
0.367014
0.36839
0.368386
0.366999
0.366999
0.367
0.368335
0.36833
0.367041
0.367043
0.368378
0.36838
0.368358
0.367006
0.367003
0.367007
0.367026
0.368299
0.367086
0.368348
0.368334
0.367043
0.367058
0.368332
0.368364
0.367059
0.367025
0.368376
0.367011
0.365557
0.364243
0.365573
0.365577
0.365559
0.36423
0.364227
0.364246
0.365591
0.365554
0.36558
0.364215
0.364209
0.364253
0.364222
0.365597
0.365593
0.364207
0.364206
0.364208
0.365543
0.365539
0.36425
0.364252
0.365585
0.365587
0.365565
0.364214
0.364211
0.364215
0.364234
0.365506
0.364294
0.365555
0.365541
0.36425
0.364265
0.365539
0.365571
0.364266
0.364233
0.365583
0.364219
0.362765
0.361451
0.362781
0.362785
0.362767
0.361438
0.361436
0.361454
0.362799
0.362762
0.362788
0.361423
0.361418
0.361461
0.36143
0.362805
0.362801
0.361415
0.361414
0.361416
0.362752
0.362747
0.361458
0.36146
0.362793
0.362794
0.362773
0.361422
0.361419
0.361422
0.361442
0.362714
0.361502
0.362763
0.362749
0.361458
0.361473
0.362747
0.362779
0.361474
0.361441
0.362791
0.361427
0.359973
0.358659
0.359989
0.359993
0.359975
0.358646
0.358644
0.358662
0.360007
0.35997
0.359996
0.358631
0.358626
0.358669
0.358638
0.360013
0.360009
0.358623
0.358622
0.358624
0.35996
0.359956
0.358667
0.358669
0.360002
0.360002
0.359981
0.35863
0.358627
0.35863
0.35865
0.359922
0.35871
0.359971
0.359957
0.358666
0.358681
0.359955
0.359987
0.358682
0.358649
0.359999
0.358635
0.399226
0.399198
0.398568
0.398428
0.399119
0.399236
0.39789
0.399242
0.399273
0.399291
0.39787
0.397884
0.397934
0.399232
0.399257
0.399277
0.397825
0.397822
0.39791
0.397881
0.399249
0.399227
0.397788
0.397829
0.397817
0.399133
0.39916
0.397826
0.397854
0.399108
0.399139
0.399118
0.397734
0.397729
0.397758
0.397782
0.399183
0.397959
0.399293
0.399253
0.39796
0.39795
0.399236
0.399252
0.397938
0.397895
0.399214
0.397834
0.407932
0.407881
0.407172
0.406902
0.407725
0.404998
0.404947
0.40426
0.404028
0.404801
0.402097
0.402055
0.401408
0.401223
0.401943
0.40797
0.406573
0.40797
0.408143
0.408171
0.406556
0.406668
0.406716
0.407918
0.408144
0.408108
0.406487
0.406467
0.406701
0.406636
0.408019
0.40794
0.406417
0.406527
0.406468
0.407549
0.407547
0.406262
0.406281
0.407646
0.407626
0.407606
0.406282
0.406215
0.406218
0.406232
0.407791
0.406543
0.408009
0.407979
0.406614
0.406603
0.407927
0.407875
0.406558
0.406454
0.407815
0.406383
0.405016
0.403644
0.405025
0.405117
0.405141
0.403623
0.403683
0.403735
0.404994
0.405113
0.405106
0.403569
0.403555
0.403713
0.403668
0.405042
0.404987
0.403504
0.403581
0.403542
0.40476
0.404787
0.403462
0.403499
0.404761
0.404766
0.404747
0.403393
0.403354
0.40338
0.403393
0.404893
0.403666
0.405055
0.405011
0.403696
0.403677
0.404973
0.404948
0.403646
0.403568
0.404905
0.403504
0.40211
0.400753
0.402116
0.402169
0.402192
0.40073
0.400761
0.400816
0.402098
0.40216
0.402169
0.400682
0.400674
0.40079
0.400755
0.402124
0.402088
0.400631
0.400687
0.400664
0.401951
0.401985
0.400647
0.400683
0.40192
0.401946
0.401924
0.400552
0.400531
0.400565
0.400586
0.402031
0.400808
0.402159
0.402115
0.400818
0.400802
0.402089
0.402087
0.400782
0.400724
0.402047
0.400662
0.339773
0.336982
0.340433
0.339118
0.340448
0.340452
0.340434
0.339105
0.339103
0.339121
0.34042
0.340415
0.339126
0.339129
0.340382
0.339169
0.340429
0.340416
0.339125
0.33914
0.337641
0.336327
0.337656
0.33766
0.337642
0.336314
0.336311
0.336329
0.337628
0.337624
0.336335
0.336337
0.33759
0.336378
0.337638
0.337624
0.336334
0.336349
0.337623
0.337655
0.337672
0.337678
0.336982
0.337668
0.33488
0.334887
0.33419
0.33419
0.334876
0.337675
0.337638
0.337664
0.336299
0.336294
0.336337
0.336305
0.33768
0.337677
0.33629
0.336289
0.336292
0.337669
0.337668
0.337648
0.336297
0.336295
0.336297
0.336317
0.33635
0.336316
0.337666
0.336302
0.33485
0.333536
0.334865
0.334869
0.334851
0.333523
0.33352
0.333538
0.334884
0.334847
0.334872
0.333508
0.333502
0.333545
0.333514
0.334889
0.334885
0.333499
0.333498
0.3335
0.334837
0.334832
0.333543
0.333546
0.334878
0.334877
0.334857
0.333506
0.333504
0.333506
0.333526
0.334799
0.333586
0.334846
0.334833
0.333542
0.333557
0.334831
0.334863
0.333559
0.333525
0.334875
0.333511
0.0729156
0.0729138
0.072908
0.0722246
0.0722244
0.0729067
0.0722243
0.0722245
0.0728839
0.0729063
0.0728838
0.0729076
0.070095
0.0700931
0.0700874
0.070095
0.069404
0.0694038
0.0700861
0.0700932
0.069404
0.0694039
0.0700633
0.0700875
0.0700862
0.0700632
0.070087
0.0672744
0.0672726
0.0672668
0.0672745
0.0665832
0.0665832
0.0672655
0.0672724
0.0665832
0.0665833
0.0672427
0.0644539
0.0644521
0.0644464
0.0729099
0.0729182
0.0715391
0.071532
0.0729086
0.0715407
0.0729135
0.0729035
0.072883
0.0715334
0.0715372
0.0715456
0.071566
0.072909
0.0728857
0.0729014
0.0715355
0.0715402
0.0715633
0.0715471
0.0729212
0.071541
0.0715275
0.0728642
0.0728844
0.0728965
0.0715418
0.0715847
0.0715647
0.0715532
0.0728935
0.0729018
0.072852
0.071565
0.0715559
0.0715466
0.0715971
0.0728845
0.0728641
0.0728965
0.0715416
0.0715645
0.0715846
0.0715532
0.0729014
0.0728935
0.0728518
0.0715651
0.0715471
0.0715559
0.0715973
0.071541
0.0700893
0.0700975
0.0687185
0.0687111
0.070088
0.0687201
0.0701004
0.0701004
0.0701049
0.0687075
0.0687075
0.0687027
0.0700925
0.0700824
0.0700623
0.0687128
0.0687161
0.0687248
0.0687455
0.0700884
0.0700651
0.0700808
0.0687151
0.0687196
0.0687427
0.0687265
0.0701006
0.0687205
0.0687069
0.0700893
0.0700975
0.0687186
0.068711
0.0700825
0.0700925
0.0700624
0.068713
0.068725
0.0687161
0.0687454
0.0700437
0.0700639
0.0700759
0.0687212
0.0687642
0.0687441
0.0687326
0.070088
0.0687202
0.0700653
0.0700881
0.0700808
0.0687153
0.068743
0.0687194
0.0687266
0.0700729
0.0700812
0.0700314
0.0687444
0.0687354
0.0687261
0.0687765
0.0701006
0.0687199
0.0687067
0.070064
0.0700437
0.0700759
0.0687217
0.0687441
0.0687643
0.0687326
0.0700808
0.0700729
0.0700312
0.0687445
0.0687265
0.0687354
0.0687768
0.0687204
0.0672687
0.0672768
0.0658979
0.0658905
0.0672674
0.0658996
0.0672798
0.0672797
0.0672843
0.0658868
0.0658868
0.0658821
0.0672717
0.0672617
0.0672419
0.0658922
0.0658955
0.0659044
0.0659252
0.0672678
0.0672446
0.0672602
0.0658945
0.0658989
0.0659222
0.065906
0.06728
0.0658999
0.0658864
0.0672687
0.0672766
0.0658978
0.0658902
0.067262
0.0672716
0.0672415
0.0658923
0.0659039
0.0658952
0.0659244
0.0672231
0.0672432
0.0672553
0.0659006
0.0659436
0.0659235
0.065912
0.0672674
0.0658994
0.0672441
0.0672682
0.0672603
0.0658943
0.0659219
0.0658993
0.0659057
0.0672523
0.0672606
0.0672108
0.0659238
0.0659148
0.0659055
0.0659559
0.0644481
0.0644562
0.0630773
0.0630698
0.0644469
0.063079
0.0644592
0.0644591
0.0644637
0.0630663
0.0630662
0.0630615
0.0644512
0.0644412
0.0644213
0.0630718
0.0630748
0.0630833
0.0631041
0.0644469
0.0644241
0.0644398
0.0630741
0.0630781
0.0631018
0.0630854
0.0644595
0.0630787
0.0630655
0.0672675
0.0672652
0.0672427
0.0672665
0.0644538
0.0637626
0.0637627
0.064445
0.0644519
0.0637626
0.0637628
0.0644221
0.064446
0.0644449
0.0644221
0.0644459
0.0616333
0.0616312
0.0616331
0.0616313
0.0616256
0.0616243
0.0616015
0.0616253
0.0672803
0.0658995
0.0658862
0.0672433
0.067223
0.0672553
0.0659004
0.0659234
0.0659434
0.065912
0.0672602
0.0672523
0.0672106
0.0659239
0.0659059
0.0659147
0.0659561
0.0658998
0.0644481
0.0644559
0.0630773
0.0630698
0.0644412
0.0644509
0.064421
0.0630715
0.0630838
0.0630748
0.0631044
0.0644025
0.0644226
0.0644347
0.0630805
0.0631231
0.063103
0.0630914
0.0644467
0.0630789
0.0644239
0.0644472
0.0644394
0.0630738
0.0631015
0.0630784
0.0630853
0.0644317
0.06444
0.0643902
0.0631032
0.0630942
0.0630849
0.0631353
0.0644593
0.0630792
0.0630657
0.0644228
0.0644024
0.0644347
0.06308
0.0631028
0.0631229
0.0630914
0.0644396
0.0644317
0.06439
0.0631033
0.0630853
0.0630941
0.0631356
0.0630792
0.0616275
0.0616353
0.0616262
0.0616385
0.0616385
0.0616431
0.0616303
0.0616208
0.0616002
0.0616028
0.0616274
0.0616355
0.0616204
0.0616305
0.0616007
0.0616262
0.0616034
0.0616266
0.061619
0.0616388
0.0616021
0.0615819
0.0616141
0.061619
0.0616111
0.0615694
0.157533
0.157531
0.157526
0.157533
0.156842
0.156842
0.157524
0.157531
0.156842
0.156842
0.157502
0.157526
0.157524
0.157502
0.157525
0.154713
0.154711
0.154705
0.154713
0.154022
0.154022
0.154704
0.154711
0.154022
0.154022
0.154681
0.154705
0.154704
0.154681
0.154705
0.151892
0.15189
0.151885
0.151892
0.151201
0.151201
0.151883
0.15189
0.151201
0.151201
0.15186
0.151885
0.151883
0.15186
0.151884
0.149072
0.14907
0.149064
0.149072
0.14838
0.14838
0.149063
0.14907
0.148381
0.148381
0.14904
0.149064
0.149063
0.14904
0.149064
0.157528
0.157536
0.156157
0.15615
0.157526
0.156158
0.157539
0.157539
0.157543
0.156146
0.156146
0.156141
0.157531
0.157521
0.157501
0.156151
0.156155
0.156163
0.156184
0.157527
0.157503
0.157519
0.156153
0.156158
0.156181
0.156165
0.157539
0.156158
0.156145
0.157528
0.157536
0.156157
0.15615
0.157521
0.157531
0.157501
0.156151
0.156163
0.156155
0.156184
0.157482
0.157502
0.157514
0.156159
0.156202
0.156182
0.156171
0.157526
0.156158
0.157503
0.157527
0.157519
0.156153
0.156181
0.156158
0.156165
0.157511
0.15752
0.15747
0.156183
0.156174
0.156164
0.156215
0.157539
0.156158
0.156145
0.157502
0.157482
0.157514
0.156159
0.156182
0.156202
0.156171
0.157519
0.157511
0.15747
0.156183
0.156165
0.156174
0.156215
0.156159
0.154707
0.154715
0.153336
0.153329
0.154706
0.153338
0.154718
0.154718
0.154723
0.153325
0.153325
0.15332
0.15471
0.1547
0.15468
0.153331
0.153334
0.153343
0.153363
0.154706
0.154683
0.154698
0.153333
0.153337
0.15336
0.153344
0.154718
0.153338
0.153325
0.154707
0.154715
0.153336
0.153329
0.1547
0.15471
0.15468
0.153331
0.153343
0.153334
0.153363
0.154661
0.154682
0.154694
0.153339
0.153382
0.153362
0.15335
0.154706
0.153338
0.154683
0.154706
0.154698
0.153333
0.15336
0.153337
0.153344
0.154691
0.154699
0.154649
0.153362
0.153353
0.153344
0.153394
0.154718
0.153338
0.153325
0.154682
0.154661
0.154694
0.153339
0.153362
0.153382
0.15335
0.154699
0.154691
0.154649
0.153362
0.153344
0.153353
0.153394
0.153338
0.151886
0.151894
0.150516
0.150508
0.151885
0.150517
0.151897
0.151897
0.151902
0.150505
0.150505
0.1505
0.151889
0.15188
0.15186
0.15051
0.150513
0.150522
0.150543
0.151885
0.151862
0.151878
0.150512
0.150517
0.15054
0.150524
0.151898
0.150518
0.150504
0.151886
0.151894
0.150516
0.150508
0.15188
0.151889
0.15186
0.15051
0.150522
0.150513
0.150543
0.151841
0.151861
0.151873
0.150518
0.150561
0.150541
0.15053
0.151885
0.150517
0.151862
0.151886
0.151878
0.150512
0.15054
0.150517
0.150524
0.15187
0.151878
0.151829
0.150542
0.150533
0.150523
0.150574
0.151898
0.150518
0.150504
0.151861
0.151841
0.151873
0.150518
0.150541
0.150561
0.15053
0.151878
0.15187
0.151828
0.150542
0.150524
0.150532
0.150574
0.150518
0.149066
0.149074
0.147695
0.147688
0.149065
0.147697
0.149077
0.149077
0.149081
0.147684
0.147684
0.147679
0.149069
0.149059
0.149039
0.147689
0.147693
0.147701
0.147722
0.149065
0.149042
0.149058
0.147692
0.147695
0.14772
0.147703
0.149077
0.147697
0.147683
0.149066
0.149074
0.147695
0.147687
0.149059
0.149068
0.149039
0.147689
0.147701
0.147692
0.147722
0.14902
0.14904
0.149052
0.147698
0.147741
0.147721
0.147709
0.149065
0.147697
0.149042
0.149065
0.149058
0.147692
0.14772
0.147696
0.147703
0.149049
0.149058
0.149008
0.147721
0.147712
0.147703
0.147753
0.149077
0.147696
0.147683
0.14904
0.14902
0.149052
0.147698
0.147721
0.147741
0.147709
0.149057
0.149049
0.149008
0.147721
0.147703
0.147712
0.147753
0.147697
0.146245
0.146254
0.144874
0.144867
0.146244
0.144876
0.146251
0.146249
0.146244
0.146251
0.14556
0.14556
0.146242
0.146249
0.14556
0.14556
0.146219
0.146244
0.146242
0.146219
0.146243
0.14343
0.143428
0.143422
0.14343
0.142739
0.142739
0.143421
0.143428
0.142739
0.142739
0.143399
0.143423
0.143421
0.143399
0.143422
0.14061
0.140608
0.140602
0.14061
0.139919
0.139919
0.140601
0.140608
0.139919
0.139919
0.140578
0.140602
0.140601
0.140578
0.140602
0.137789
0.137788
0.137782
0.137789
0.137098
0.137098
0.13778
0.137788
0.137098
0.137098
0.137757
0.137782
0.13778
0.137757
0.137781
0.134277
0.134959
0.134277
0.134278
0.134937
0.134959
0.134937
0.134961
0.146257
0.146256
0.146261
0.144863
0.144863
0.144859
0.14625
0.146239
0.146219
0.144869
0.144872
0.144881
0.144901
0.146245
0.146221
0.146237
0.14487
0.144876
0.144898
0.144882
0.146257
0.144877
0.144863
0.146245
0.146254
0.144874
0.144867
0.146239
0.146249
0.146218
0.144869
0.144881
0.144873
0.144901
0.1462
0.14622
0.146232
0.144877
0.14492
0.1449
0.144889
0.146244
0.144876
0.146221
0.146245
0.146237
0.144871
0.144899
0.144876
0.144882
0.146229
0.146237
0.146187
0.1449
0.144891
0.144882
0.144932
0.146257
0.144876
0.144863
0.14622
0.1462
0.146232
0.144877
0.1449
0.14492
0.144889
0.146237
0.146229
0.146187
0.1449
0.144882
0.144891
0.144933
0.144876
0.143425
0.143432
0.142054
0.142046
0.143423
0.142055
0.143436
0.143436
0.14344
0.142043
0.142043
0.142038
0.143427
0.143418
0.143398
0.142048
0.142051
0.14206
0.142081
0.143424
0.1434
0.143416
0.14205
0.142055
0.142078
0.142062
0.143436
0.142056
0.142042
0.143425
0.143433
0.142054
0.142046
0.143418
0.143428
0.143398
0.142048
0.14206
0.142051
0.142081
0.143379
0.143399
0.143411
0.142056
0.142099
0.142079
0.142068
0.143423
0.142055
0.143401
0.143424
0.143416
0.14205
0.142078
0.142055
0.142062
0.143408
0.143417
0.143367
0.14208
0.142071
0.142061
0.142112
0.143436
0.142056
0.142042
0.143399
0.143379
0.143411
0.142057
0.142079
0.142099
0.142068
0.143416
0.143408
0.143367
0.14208
0.142062
0.142071
0.142112
0.142056
0.140604
0.140612
0.139233
0.139226
0.140603
0.139235
0.140615
0.140615
0.14062
0.139222
0.139222
0.139217
0.140607
0.140597
0.140577
0.139228
0.13923
0.13924
0.13926
0.140603
0.14058
0.140596
0.13923
0.139234
0.139258
0.139241
0.140615
0.139235
0.139222
0.140604
0.140612
0.139233
0.139226
0.140597
0.140607
0.140577
0.139228
0.13924
0.139231
0.13926
0.140558
0.140579
0.140591
0.139236
0.139279
0.139259
0.139247
0.140603
0.139235
0.14058
0.140603
0.140596
0.13923
0.139258
0.139234
0.139241
0.140588
0.140596
0.140546
0.139259
0.13925
0.139241
0.139291
0.140615
0.139235
0.139222
0.140579
0.140558
0.140591
0.139236
0.139259
0.139279
0.139247
0.140596
0.140588
0.140546
0.139259
0.139241
0.13925
0.139292
0.139235
0.137784
0.137791
0.136413
0.136405
0.137782
0.136414
0.137794
0.137794