/*--------------------------------*- C++ -*----------------------------------*\
  =========                 |
  \\      /  F ield         | OpenFOAM: The Open Source CFD Toolbox
   \\    /   O peration     | Website:  https://openfoam.org
    \\  /    A nd           | Version:  9
     \\/     M anipulation  |
\*---------------------------------------------------------------------------*/
FoamFile
{
    format      ascii;
    class       volScalarField;
    location    "0.299984";
    object      static(p);
}
// * * * * * * * * * * * * * * * * * * * * * * * * * * * * * * * * * * * * * //

dimensions      [1 -1 -2 0 0 0 0];

internalField   nonuniform List<scalar> 
132485
(
0.180079
0.180077
0.180072
0.180079
0.179388
0.179388
0.18007
0.180077
0.179388
0.179388
0.180048
0.180072
0.18007
0.180048
0.180071
0.177258
0.177257
0.177251
0.177258
0.176567
0.176567
0.177249
0.177257
0.176567
0.176567
0.177227
0.177251
0.17725
0.177227
0.17725
0.174438
0.174436
0.17443
0.174438
0.173746
0.173746
0.174429
0.174436
0.173746
0.173746
0.174406
0.17443
0.174429
0.174406
0.17443
0.171617
0.171615
0.171609
0.171617
0.170925
0.170925
0.171608
0.171615
0.170925
0.170925
0.171585
0.171609
0.171608
0.171585
0.171609
0.168796
0.168794
0.168788
0.168796
0.168104
0.168104
0.168787
0.168794
0.168104
0.168105
0.168764
0.168788
0.168787
0.168764
0.168788
0.165975
0.165973
0.165967
0.165975
0.165284
0.165283
0.165966
0.165973
0.165283
0.165284
0.165943
0.165967
0.165966
0.165943
0.165967
0.163154
0.163152
0.163146
0.163154
0.162463
0.162463
0.163145
0.163152
0.162463
0.162463
0.163122
0.163146
0.163145
0.163122
0.163146
0.181524
0.181516
0.181525
0.181525
0.180074
0.180082
0.178703
0.178695
0.180072
0.178704
0.180085
0.180085
0.180089
0.178692
0.178692
0.178687
0.180077
0.180067
0.180047
0.178697
0.1787
0.178709
0.17873
0.180073
0.180049
0.180065
0.178699
0.178704
0.178727
0.178711
0.180085
0.178705
0.178691
0.180074
0.180082
0.178703
0.178695
0.180067
0.180077
0.180047
0.178697
0.178709
0.1787
0.17873
0.180028
0.180048
0.18006
0.178705
0.178748
0.178728
0.178717
0.180072
0.178704
0.180049
0.180073
0.180065
0.178699
0.178727
0.178704
0.178711
0.180057
0.180066
0.180016
0.178729
0.17872
0.17871
0.178761
0.180085
0.178705
0.178691
0.180048
0.180028
0.18006
0.178705
0.178728
0.178748
0.178717
0.180065
0.180057
0.180015
0.178729
0.178711
0.17872
0.178761
0.178705
0.177253
0.177261
0.175882
0.175874
0.177251
0.175883
0.177264
0.177264
0.177268
0.175871
0.175871
0.175866
0.177256
0.177246
0.177226
0.175876
0.175879
0.175888
0.175909
0.177252
0.177229
0.177244
0.175878
0.175883
0.175906
0.17589
0.177264
0.175884
0.17587
0.177253
0.177261
0.175882
0.175874
0.177246
0.177256
0.177226
0.175876
0.175888
0.175879
0.175909
0.177207
0.177227
0.177239
0.175884
0.175927
0.175907
0.175896
0.177251
0.175883
0.177229
0.177252
0.177244
0.175878
0.175906
0.175883
0.17589
0.177236
0.177245
0.177195
0.175908
0.175899
0.175889
0.17594
0.177264
0.175884
0.17587
0.177227
0.177207
0.177239
0.175884
0.175907
0.175927
0.175896
0.177244
0.177236
0.177195
0.175908
0.17589
0.175899
0.17594
0.175884
0.174432
0.17444
0.173061
0.173053
0.17443
0.173062
0.174443
0.174443
0.174447
0.17305
0.17305
0.173045
0.174435
0.174425
0.174405
0.173055
0.173058
0.173067
0.173088
0.174431
0.174408
0.174423
0.173057
0.173062
0.173085
0.173069
0.174443
0.173063
0.173049
0.174432
0.17444
0.173061
0.173053
0.174425
0.174435
0.174405
0.173055
0.173067
0.173058
0.173088
0.174386
0.174406
0.174418
0.173064
0.173106
0.173086
0.173075
0.17443
0.173062
0.174408
0.174431
0.174423
0.173057
0.173085
0.173062
0.173069
0.174415
0.174424
0.174374
0.173087
0.173078
0.173068
0.173119
0.174443
0.173063
0.173049
0.174406
0.174386
0.174418
0.173063
0.173086
0.173106
0.173075
0.174423
0.174415
0.174374
0.173087
0.173069
0.173078
0.173119
0.173063
0.171611
0.171619
0.17024
0.170232
0.17161
0.170242
0.171622
0.171622
0.171626
0.170229
0.170229
0.170224
0.171614
0.171604
0.171584
0.170234
0.170237
0.170246
0.170267
0.17161
0.171587
0.171602
0.170236
0.170241
0.170264
0.170248
0.171622
0.170242
0.170228
0.171611
0.171619
0.17024
0.170232
0.171604
0.171614
0.171584
0.170234
0.170246
0.170237
0.170267
0.171565
0.171585
0.171597
0.170243
0.170286
0.170265
0.170254
0.17161
0.170242
0.171587
0.17161
0.171602
0.170236
0.170264
0.170241
0.170248
0.171594
0.171603
0.171553
0.170266
0.170257
0.170247
0.170298
0.171622
0.170242
0.170228
0.171586
0.171565
0.171597
0.170243
0.170265
0.170286
0.170254
0.171602
0.171594
0.171553
0.170266
0.170248
0.170257
0.170298
0.170242
0.16879
0.168798
0.167419
0.167411
0.168789
0.167421
0.168801
0.168801
0.168806
0.167408
0.167408
0.167403
0.168793
0.168783
0.168763
0.167413
0.167416
0.167425
0.167446
0.168789
0.168766
0.168781
0.167416
0.16742
0.167443
0.167427
0.168801
0.167421
0.167407
0.16879
0.168798
0.167419
0.167411
0.168783
0.168793
0.168763
0.167413
0.167425
0.167416
0.167446
0.168744
0.168764
0.168777
0.167422
0.167465
0.167445
0.167433
0.168789
0.167421
0.168766
0.168789
0.168781
0.167416
0.167443
0.16742
0.167427
0.168774
0.168782
0.168732
0.167445
0.167436
0.167427
0.167477
0.168801
0.167421
0.167407
0.168765
0.168744
0.168777
0.167422
0.167444
0.167465
0.167433
0.168781
0.168774
0.168732
0.167445
0.167427
0.167436
0.167477
0.167421
0.165969
0.165977
0.164598
0.164591
0.165968
0.1646
0.16598
0.16598
0.165985
0.164587
0.164587
0.164582
0.165972
0.165962
0.165942
0.164592
0.164596
0.164604
0.164625
0.165968
0.165945
0.165961
0.164595
0.164599
0.164622
0.164606
0.16598
0.1646
0.164586
0.165969
0.165977
0.164598
0.164591
0.165962
0.165972
0.165942
0.164592
0.164604
0.164596
0.164625
0.165923
0.165944
0.165956
0.164601
0.164644
0.164624
0.164612
0.165968
0.1646
0.165945
0.165968
0.165961
0.164595
0.164622
0.164599
0.164606
0.165953
0.165961
0.165911
0.164624
0.164615
0.164606
0.164656
0.16598
0.1646
0.164586
0.165944
0.165923
0.165956
0.164601
0.164623
0.164644
0.164612
0.16596
0.165953
0.165911
0.164624
0.164606
0.164615
0.164656
0.1646
0.163148
0.163156
0.161777
0.16177
0.163147
0.161779
0.163159
0.163159
0.163164
0.161766
0.161766
0.161761
0.163151
0.163141
0.163121
0.161772
0.161774
0.161783
0.161804
0.163147
0.163124
0.16314
0.161774
0.161778
0.161802
0.161785
0.163159
0.161779
0.161765
0.163148
0.163156
0.161777
0.16177
0.163141
0.163151
0.163121
0.161772
0.161783
0.161774
0.161804
0.163102
0.163123
0.163135
0.16178
0.161823
0.161803
0.161791
0.163147
0.161779
0.163124
0.163147
0.16314
0.161774
0.161802
0.161778
0.161785
0.163132
0.16314
0.16309
0.161803
0.161794
0.161785
0.161835
0.163159
0.161779
0.161765
0.163123
0.163102
0.163135
0.16178
0.161803
0.161823
0.161791
0.16314
0.163132
0.16309
0.161803
0.161785
0.161794
0.161835
0.161779
0.160333
0.160331
0.160326
0.160333
0.159641
0.159642
0.160324
0.160331
0.159642
0.159642
0.160301
0.160326
0.160324
0.160301
0.160325
0.160327
0.160335
0.158956
0.158948
0.160326
0.158958
0.160338
0.160338
0.160343
0.158945
0.158945
0.15894
0.16033
0.16032
0.1603
0.158951
0.158953
0.158962
0.158983
0.160326
0.160303
0.160319
0.158953
0.158957
0.158981
0.158964
0.160339
0.158957
0.158944
0.160327
0.160335
0.158956
0.158948
0.16032
0.16033
0.1603
0.158951
0.158962
0.158953
0.158983
0.160281
0.160302
0.160314
0.158959
0.159002
0.158982
0.15897
0.160326
0.158958
0.160303
0.160326
0.160319
0.158953
0.158981
0.158957
0.158964
0.160311
0.160319
0.160269
0.158982
0.158973
0.158964
0.159014
0.160339
0.158957
0.158944
0.160302
0.160281
0.160314
0.158959
0.158982
0.159002
0.15897
0.160319
0.160311
0.160269
0.158982
0.158964
0.158973
0.159014
0.158958
0.413872
0.413882
0.412523
0.412798
0.413065
0.410832
0.410871
0.410537
0.40979
0.410093
0.410275
0.414008
0.414384
0.414556
0.41236
0.412429
0.412763
0.412929
0.4146
0.41452
0.412402
0.412933
0.412887
0.414045
0.412557
0.412969
0.411712
0.411618
0.414154
0.414348
0.412517
0.412699
0.414467
0.41429
0.412791
0.412694
0.413744
0.412362
0.410814
0.41089
0.411017
0.409326
0.4094
0.409491
0.41087
0.41114
0.411235
0.409359
0.409394
0.409632
0.409741
0.41126
0.411233
0.409467
0.409754
0.409702
0.410951
0.40951
0.410714
0.410426
0.410498
0.409082
0.409212
0.409055
0.409062
0.410228
0.408973
0.408941
0.410777
0.409289
0.41088
0.410964
0.409389
0.40952
0.41104
0.41103
0.409583
0.409563
0.410705
0.409405
0.413609
0.413832
0.413864
0.414142
0.41234
0.412408
0.41258
0.413995
0.41323
0.413692
0.412065
0.412348
0.411892
0.41206
0.414044
0.412375
0.357167
0.357174
0.356478
0.356476
0.357163
0.354376
0.354382
0.353686
0.353685
0.354372
0.351584
0.35159
0.350894
0.350893
0.35158
0.348793
0.348799
0.348103
0.348102
0.348789
0.346001
0.346007
0.345311
0.345311
0.345997
0.34321
0.343216
0.34252
0.342519
0.343206
0.340418
0.340425
0.339728
0.340414
0.357137
0.355822
0.357152
0.357156
0.357138
0.35581
0.355807
0.355825
0.357171
0.357134
0.357159
0.355795
0.355789
0.355832
0.355801
0.357176
0.357172
0.355786
0.355785
0.355787
0.357123
0.357119
0.35583
0.355832
0.357165
0.357165
0.357144
0.355793
0.35579
0.355793
0.355813
0.357086
0.355873
0.357134
0.35712
0.355829
0.355844
0.357118
0.35715
0.355846
0.355812
0.357162
0.355798
0.354345
0.353031
0.35436
0.354364
0.354346
0.353018
0.353015
0.353033
0.354379
0.354342
0.354368
0.353003
0.352997
0.35304
0.353009
0.354384
0.35438
0.352994
0.352993
0.352996
0.354332
0.354327
0.353038
0.353041
0.354373
0.354373
0.354352
0.353001
0.352999
0.353001
0.353021
0.354294
0.353082
0.354342
0.354328
0.353038
0.353053
0.354326
0.354359
0.353054
0.35302
0.35437
0.353006
0.351553
0.350239
0.351569
0.351573
0.351555
0.350226
0.350224
0.350241
0.351588
0.35155
0.351576
0.350212
0.350206
0.350249
0.350218
0.351593
0.351589
0.350203
0.350202
0.350204
0.35154
0.351536
0.350247
0.350249
0.351582
0.351581
0.351561
0.350209
0.350207
0.350209
0.35023
0.351502
0.35029
0.35155
0.351537
0.350246
0.350261
0.351535
0.351567
0.350262
0.350229
0.351579
0.350215
0.348762
0.347448
0.348777
0.348781
0.348763
0.347435
0.347432
0.34745
0.348796
0.348759
0.348784
0.34742
0.347414
0.347457
0.347426
0.348801
0.348797
0.347411
0.34741
0.347412
0.348749
0.348745
0.347456
0.347458
0.34879
0.348789
0.348769
0.347418
0.347416
0.347418
0.347438
0.348711
0.347499
0.348759
0.348745
0.347455
0.34747
0.348743
0.348776
0.347471
0.347437
0.348787
0.347423
0.345971
0.344656
0.345985
0.34599
0.345972
0.344643
0.344641
0.344658
0.346005
0.345967
0.345993
0.344629
0.344623
0.344666
0.344635
0.34601
0.346006
0.34462
0.344619
0.344621
0.345957
0.345953
0.344664
0.344667
0.345999
0.345998
0.345978
0.344626
0.344624
0.344626
0.344647
0.345919
0.344707
0.345967
0.345954
0.344663
0.344678
0.345952
0.345984
0.344679
0.344646
0.345996
0.344632
0.343179
0.341865
0.343194
0.343198
0.34318
0.341852
0.341849
0.341867
0.343213
0.343176
0.343202
0.341837
0.341832
0.341875
0.341843
0.343218
0.343214
0.341828
0.341827
0.34183
0.343166
0.343162
0.341873
0.341875
0.343207
0.343206
0.343186
0.341835
0.341833
0.341835
0.341855
0.343128
0.341916
0.343176
0.343162
0.341872
0.341887
0.34316
0.343193
0.341888
0.341854
0.343204
0.34184
0.340422
0.340385
0.34041
0.339046
0.33904
0.339083
0.339052
0.340427
0.340423
0.339037
0.339036
0.339038
0.340416
0.340415
0.340395
0.339044
0.339042
0.339043
0.339064
0.340369
0.340401
0.339097
0.339063
0.340413
0.339049
0.396336
0.396321
0.395684
0.395578
0.396266
0.39351
0.393505
0.392855
0.392776
0.393468
0.390697
0.3907
0.390037
0.38998
0.390675
0.387893
0.3879
0.387227
0.387186
0.387882
0.385094
0.385103
0.384422
0.384392
0.38509
0.382298
0.382308
0.381622
0.3816
0.382297
0.379504
0.379513
0.378824
0.378808
0.379504
0.376711
0.37672
0.376028
0.376016
0.37671
0.373918
0.373927
0.373233
0.373224
0.373917
0.371126
0.371134
0.37044
0.370433
0.371124
0.368334
0.368341
0.367647
0.367642
0.368332
0.365542
0.365549
0.364854
0.36485
0.365539
0.36275
0.362757
0.362062
0.362059
0.362747
0.359959
0.359965
0.35927
0.359268
0.359955
0.396337
0.395001
0.396348
0.396365
0.396378
0.394986
0.39499
0.395035
0.396344
0.396345
0.396372
0.394944
0.394945
0.395014
0.394988
0.396359
0.396345
0.39492
0.394949
0.394944
0.396268
0.396283
0.394963
0.394979
0.396263
0.396297
0.396275
0.394887
0.394886
0.394921
0.394939
0.396299
0.395076
0.396397
0.396363
0.395069
0.395066
0.396351
0.39638
0.395058
0.395024
0.396347
0.394971
0.393503
0.392174
0.393518
0.393528
0.393534
0.392162
0.392162
0.392201
0.39352
0.393505
0.393536
0.392126
0.392126
0.392184
0.392161
0.393534
0.393525
0.39211
0.392131
0.39213
0.393454
0.393458
0.392151
0.392158
0.393467
0.3935
0.393475
0.392095
0.392091
0.392126
0.392141
0.393468
0.392247
0.393556
0.393528
0.392233
0.392236
0.39352
0.393556
0.392231
0.392203
0.393529
0.392157
0.390684
0.389359
0.390701
0.390707
0.390708
0.389349
0.389348
0.389381
0.390707
0.390683
0.390716
0.389318
0.389318
0.389369
0.389347
0.390721
0.390715
0.389307
0.389323
0.389323
0.390646
0.390643
0.389347
0.389348
0.390674
0.390703
0.390676
0.389302
0.389299
0.389329
0.389343
0.390647
0.389428
0.390727
0.390702
0.389408
0.389414
0.390697
0.390736
0.389412
0.389385
0.390718
0.389348
0.387874
0.386554
0.387893
0.387897
0.387892
0.386544
0.386541
0.38657
0.387902
0.387872
0.387906
0.386517
0.386516
0.386563
0.38654
0.387916
0.387911
0.386509
0.38652
0.386521
0.387845
0.387838
0.386548
0.386547
0.387881
0.387906
0.387878
0.38651
0.386506
0.386532
0.386545
0.387835
0.386618
0.387907
0.387885
0.386591
0.386601
0.387881
0.387921
0.386599
0.386573
0.387912
0.386542
0.385071
0.383753
0.38509
0.385094
0.385085
0.383744
0.383741
0.383766
0.385102
0.385069
0.385102
0.383719
0.383717
0.383763
0.383738
0.385115
0.38511
0.383713
0.383721
0.383722
0.385047
0.385039
0.383752
0.38375
0.385089
0.385108
0.385081
0.383718
0.383714
0.383734
0.383748
0.385029
0.383813
0.385094
0.385075
0.383782
0.383793
0.385071
0.38511
0.383793
0.383764
0.385109
0.38374
0.382273
0.380956
0.382291
0.382295
0.382283
0.380946
0.380943
0.380966
0.382305
0.38227
0.382301
0.380924
0.380921
0.380966
0.380939
0.382317
0.382312
0.380919
0.380923
0.380925
0.382252
0.382244
0.380958
0.380956
0.382296
0.382311
0.382284
0.380925
0.380921
0.380937
0.380951
0.382228
0.381013
0.382287
0.382271
0.380977
0.38099
0.382267
0.382304
0.38099
0.38096
0.382308
0.38094
0.379477
0.378161
0.379495
0.379498
0.379485
0.378151
0.378147
0.378169
0.37951
0.379475
0.379503
0.378131
0.378127
0.378171
0.378143
0.37952
0.379516
0.378125
0.378128
0.378129
0.379459
0.379451
0.378165
0.378164
0.379503
0.379514
0.379488
0.378132
0.378128
0.37814
0.378155
0.37943
0.378215
0.379485
0.37947
0.378177
0.378191
0.379467
0.379502
0.378191
0.37816
0.37951
0.378143
0.376682
0.375367
0.3767
0.376703
0.376688
0.375356
0.375353
0.375373
0.376716
0.37668
0.376708
0.375338
0.375334
0.375377
0.375348
0.376725
0.376721
0.375331
0.375333
0.375335
0.376666
0.376659
0.375372
0.375372
0.37671
0.376718
0.376693
0.375339
0.375335
0.375344
0.375361
0.376634
0.37542
0.376687
0.376672
0.37538
0.375394
0.376669
0.376703
0.375395
0.375363
0.376713
0.375347
0.373889
0.372574
0.373906
0.373909
0.373893
0.372563
0.37256
0.372579
0.373923
0.373887
0.373914
0.372545
0.372541
0.372584
0.372554
0.373931
0.373927
0.372538
0.372539
0.372541
0.373874
0.373868
0.37258
0.372581
0.373917
0.373922
0.373899
0.372546
0.372542
0.372549
0.372567
0.373839
0.372626
0.37389
0.373876
0.372585
0.372599
0.373874
0.373907
0.3726
0.372567
0.373918
0.372553
0.371096
0.369782
0.371113
0.371116
0.3711
0.36977
0.369767
0.369786
0.37113
0.371094
0.37112
0.369753
0.369748
0.369792
0.369761
0.371138
0.371133
0.369746
0.369746
0.369748
0.371082
0.371076
0.369788
0.369789
0.371125
0.371128
0.371105
0.369753
0.36975
0.369755
0.369774
0.371046
0.369833
0.371096
0.371082
0.369791
0.369805
0.37108
0.371112
0.369806
0.369773
0.371124
0.369759
0.368304
0.366989
0.36832
0.368324
0.368307
0.366977
0.366974
0.366993
0.368338
0.368301
0.368327
0.366961
0.366956
0.366999
0.366969
0.368345
0.36834
0.366953
0.366953
0.366955
0.36829
0.368285
0.366996
0.366998
0.368332
0.368334
0.368312
0.366961
0.366958
0.366962
0.366981
0.368253
0.367041
0.368302
0.368289
0.366998
0.367012
0.368286
0.368319
0.367013
0.36698
0.368331
0.366966
0.365512
0.364197
0.365528
0.365531
0.365514
0.364185
0.364182
0.3642
0.365546
0.365509
0.365535
0.364169
0.364164
0.364207
0.364176
0.365552
0.365548
0.364161
0.364161
0.364163
0.365498
0.365493
0.364204
0.364207
0.36554
0.365541
0.36552
0.364168
0.364166
0.364169
0.364188
0.365461
0.364249
0.36551
0.365496
0.364205
0.36422
0.365494
0.365526
0.364221
0.364187
0.365538
0.364174
0.36272
0.361406
0.362735
0.362739
0.362722
0.361393
0.36139
0.361408
0.362754
0.362717
0.362743
0.361378
0.361372
0.361415
0.361384
0.36276
0.362756
0.361369
0.361369
0.361371
0.362706
0.362702
0.361413
0.361415
0.362748
0.362749
0.362728
0.361376
0.361374
0.361377
0.361396
0.362669
0.361457
0.362717
0.362704
0.361413
0.361428
0.362702
0.362734
0.361429
0.361395
0.362746
0.361381
0.359928
0.358614
0.359944
0.359948
0.35993
0.358601
0.358598
0.358616
0.359962
0.359925
0.359951
0.358586
0.358581
0.358624
0.358592
0.359968
0.359964
0.358578
0.358577
0.358579
0.359915
0.35991
0.358621
0.358624
0.359956
0.359957
0.359936
0.358584
0.358582
0.358585
0.358605
0.359877
0.358665
0.359925
0.359912
0.358621
0.358636
0.35991
0.359942
0.358637
0.358604
0.359954
0.35859
0.39918
0.399152
0.398522
0.39838
0.399073
0.39919
0.397844
0.399196
0.399227
0.399245
0.397824
0.397839
0.397889
0.399186
0.399211
0.399231
0.397779
0.397776
0.397864
0.397835
0.399203
0.399181
0.397742
0.397783
0.397771
0.399087
0.399114
0.397781
0.397808
0.399063
0.399097
0.399075
0.397688
0.397684
0.397719
0.397741
0.399138
0.397914
0.399248
0.399208
0.397916
0.397906
0.399191
0.399208
0.397894
0.39785
0.39917
0.397791
0.407887
0.407835
0.407127
0.406856
0.407679
0.404953
0.404902
0.404215
0.403982
0.404755
0.402051
0.402009
0.401362
0.401177
0.401898
0.407924
0.406527
0.407924
0.408098
0.408125
0.40651
0.406622
0.40667
0.407872
0.4081
0.408064
0.406441
0.406422
0.406655
0.406591
0.407974
0.407895
0.406372
0.406482
0.406423
0.407503
0.407502
0.406215
0.406236
0.407601
0.407581
0.407561
0.406237
0.40617
0.406173
0.406187
0.407746
0.406498
0.407964
0.407934
0.40657
0.406558
0.407881
0.407829
0.406513
0.406409
0.40777
0.406339
0.40497
0.403598
0.404979
0.405071
0.405095
0.403577
0.403637
0.403689
0.404948
0.405068
0.405061
0.403523
0.403509
0.403668
0.403622
0.404996
0.404942
0.403458
0.403535
0.403496
0.404714
0.404742
0.403416
0.403453
0.404715
0.404721
0.404703
0.403348
0.403308
0.403335
0.403348
0.404848
0.403621
0.40501
0.404967
0.403652
0.403633
0.404929
0.404903
0.403602
0.403524
0.40486
0.40346
0.402064
0.400707
0.402069
0.402123
0.402146
0.400684
0.400715
0.40077
0.402052
0.402114
0.402123
0.400636
0.400628
0.400744
0.400709
0.402078
0.402042
0.400585
0.400641
0.400618
0.401905
0.401939
0.400601
0.400638
0.401874
0.401901
0.40188
0.400506
0.400486
0.400521
0.400542
0.401986
0.400763
0.402115
0.402071
0.400774
0.400758
0.402044
0.402043
0.400738
0.40068
0.402003
0.400618
0.339728
0.336937
0.340388
0.339073
0.340403
0.340407
0.340389
0.33906
0.339058
0.339076
0.340375
0.34037
0.339081
0.339084
0.340337
0.339124
0.340384
0.340371
0.33908
0.339095
0.337596
0.336282
0.337611
0.337615
0.337597
0.336269
0.336266
0.336284
0.337583
0.337579
0.33629
0.336292
0.337545
0.336333
0.337593
0.337579
0.336289
0.336304
0.337578
0.33761
0.337627
0.337633
0.336937
0.337623
0.334836
0.334842
0.334145
0.334145
0.334831
0.33763
0.337593
0.337619
0.336254
0.336249
0.336292
0.33626
0.337635
0.337632
0.336246
0.336244
0.336247
0.337624
0.337624
0.337603
0.336252
0.33625
0.336252
0.336272
0.336305
0.336271
0.337621
0.336257
0.334805
0.333491
0.33482
0.334824
0.334806
0.333478
0.333475
0.333493
0.334839
0.334802
0.334827
0.333463
0.333457
0.3335
0.333469
0.334844
0.33484
0.333454
0.333453
0.333455
0.334792
0.334788
0.333499
0.333501
0.334833
0.334832
0.334812
0.333461
0.333459
0.333461
0.333481
0.334754
0.333541
0.334802
0.334788
0.333497
0.333512
0.334786
0.334818
0.333514
0.33348
0.33483
0.333466
0.0728841
0.0728823
0.0728764
0.0721929
0.0721928
0.0728752
0.0721927
0.0721929
0.0728524
0.0728748
0.0728523
0.0728761
0.0700631
0.0700612
0.0700555
0.0700631
0.069372
0.0693719
0.0700542
0.0700613
0.069372
0.069372
0.0700315
0.0700556
0.0700543
0.0700314
0.0700552
0.0672421
0.0672404
0.0672346
0.0672423
0.0665509
0.0665509
0.0672333
0.0672402
0.0665509
0.066551
0.0672105
0.0644213
0.0644195
0.0644139
0.0728784
0.0728866
0.0715074
0.0715003
0.0728771
0.071509
0.0728819
0.0728719
0.0728515
0.0715017
0.0715055
0.0715139
0.0715343
0.0728775
0.0728541
0.0728699
0.0715039
0.0715085
0.0715316
0.0715154
0.0728897
0.0715093
0.0714958
0.0728327
0.0728529
0.0728649
0.0715101
0.071553
0.071533
0.0715215
0.0728619
0.0728703
0.0728204
0.0715333
0.0715242
0.0715149
0.0715654
0.072853
0.0728326
0.0728649
0.0715099
0.0715328
0.0715529
0.0715215
0.0728698
0.072862
0.0728202
0.0715333
0.0715154
0.0715242
0.0715656
0.0715093
0.0700574
0.0700656
0.0686864
0.068679
0.0700561
0.0686881
0.0700685
0.0700685
0.0700731
0.0686754
0.0686754
0.0686707
0.0700607
0.0700506
0.0700305
0.0686808
0.0686841
0.0686927
0.0687134
0.0700565
0.0700333
0.0700489
0.068683
0.0686876
0.0687107
0.0686945
0.0700688
0.0686884
0.0686749
0.0700575
0.0700656
0.0686865
0.068679
0.0700506
0.0700607
0.0700305
0.0686809
0.0686929
0.0686841
0.0687134
0.0700118
0.070032
0.070044
0.0686892
0.0687321
0.068712
0.0687006
0.0700561
0.0686882
0.0700334
0.0700563
0.0700489
0.0686832
0.068711
0.0686873
0.0686945
0.070041
0.0700493
0.0699995
0.0687123
0.0687033
0.068694
0.0687445
0.0700687
0.0686879
0.0686747
0.0700321
0.0700118
0.070044
0.0686896
0.068712
0.0687323
0.0687006
0.0700489
0.070041
0.0699993
0.0687125
0.0686945
0.0687033
0.0687447
0.0686884
0.0672364
0.0672446
0.0658655
0.0658581
0.0672352
0.0658672
0.0672475
0.0672475
0.0672521
0.0658544
0.0658544
0.0658497
0.0672395
0.0672295
0.0672097
0.0658598
0.0658632
0.065872
0.0658928
0.0672356
0.0672124
0.067228
0.0658621
0.0658665
0.0658898
0.0658736
0.0672478
0.0658675
0.065854
0.0672365
0.0672444
0.0658655
0.0658578
0.0672298
0.0672393
0.0672094
0.0658599
0.0658716
0.0658628
0.065892
0.0671908
0.0672111
0.0672231
0.0658682
0.0659112
0.0658911
0.0658796
0.0672351
0.0658671
0.0672119
0.067236
0.0672281
0.0658619
0.0658895
0.0658669
0.0658733
0.0672201
0.0672284
0.0671786
0.0658914
0.0658824
0.0658731
0.0659235
0.0644156
0.0644236
0.0630446
0.0630371
0.0644143
0.0630463
0.0644266
0.0644265
0.0644312
0.0630336
0.0630334
0.0630288
0.0644186
0.0644086
0.0643888
0.0630391
0.0630421
0.0630506
0.0630714
0.0644144
0.0643915
0.0644072
0.0630414
0.0630454
0.0630691
0.0630527
0.0644269
0.063046
0.0630328
0.0672353
0.067233
0.0672105
0.0672342
0.0644212
0.06373
0.0637301
0.0644124
0.0644193
0.06373
0.0637301
0.0643896
0.0644135
0.0644124
0.0643895
0.0644133
0.0616004
0.0615983
0.0616002
0.0615985
0.0615927
0.0615914
0.0615686
0.0615924
0.0672481
0.0658671
0.0658539
0.0672111
0.0671908
0.0672231
0.0658681
0.065891
0.0659111
0.0658796
0.067228
0.0672201
0.0671784
0.0658915
0.0658735
0.0658824
0.0659238
0.0658674
0.0644155
0.0644234
0.0630445
0.0630371
0.0644087
0.0644184
0.0643885
0.0630388
0.0630511
0.0630421
0.0630717
0.06437
0.0643901
0.0644021
0.0630478
0.0630904
0.0630702
0.0630587
0.0644142
0.0630462
0.0643914
0.0644147
0.0644069
0.0630411
0.0630688
0.0630457
0.0630526
0.0643992
0.0644075
0.0643577
0.0630705
0.0630615
0.0630522
0.0631026
0.0644268
0.0630465
0.063033
0.0643902
0.0643699
0.0644021
0.0630472
0.06307
0.0630902
0.0630587
0.064407
0.0643992
0.0643574
0.0630706
0.0630526
0.0630614
0.0631029
0.0630465
0.0615946
0.0616024
0.0615933
0.0616056
0.0616056
0.0616102
0.0615974
0.0615879
0.0615673
0.06157
0.0615945
0.0616026
0.0615875
0.0615976
0.0615679
0.0615933
0.0615705
0.0615937
0.0615861
0.0616059
0.0615693
0.061549
0.0615812
0.0615861
0.0615782
0.0615365
0.157512
0.15751
0.157505
0.157512
0.156821
0.156821
0.157503
0.15751
0.156821
0.156821
0.15748
0.157505
0.157503
0.15748
0.157504
0.154691
0.154689
0.154683
0.154691
0.154
0.154
0.154682
0.154689
0.154
0.154
0.154659
0.154683
0.154682
0.154659
0.154683
0.15187
0.151868
0.151862
0.15187
0.151179
0.151179
0.151861
0.151868
0.151179
0.151179
0.151838
0.151862
0.151861
0.151838
0.151862
0.149049
0.149047
0.149042
0.149049
0.148358
0.148358
0.14904
0.149048
0.148358
0.148358
0.149017
0.149042
0.14904
0.149017
0.149041
0.157506
0.157514
0.156135
0.156128
0.157505
0.156137
0.157517
0.157517
0.157522
0.156124
0.156124
0.156119
0.15751
0.1575
0.157479
0.156129
0.156133
0.156142
0.156162
0.157506
0.157482
0.157498
0.156131
0.156137
0.156159
0.156143
0.157518
0.156137
0.156124
0.157506
0.157514
0.156135
0.156128
0.1575
0.15751
0.157479
0.156129
0.156142
0.156133
0.156162
0.15746
0.157481
0.157493
0.156138
0.156181
0.156161
0.156149
0.157505
0.156137
0.157482
0.157506
0.157498
0.156131
0.156159
0.156137
0.156143
0.15749
0.157498
0.157448
0.156161
0.156152
0.156143
0.156193
0.157518
0.156137
0.156124
0.157481
0.15746
0.157493
0.156138
0.156161
0.156181
0.156149
0.157498
0.15749
0.157448
0.156161
0.156143
0.156152
0.156193
0.156137
0.154685
0.154693
0.153314
0.153307
0.154684
0.153316
0.154696
0.154696
0.154701
0.153303
0.153303
0.153298
0.154688
0.154678
0.154658
0.153309
0.153312
0.153321
0.153341
0.154684
0.154661
0.154677
0.153311
0.153315
0.153339
0.153322
0.154697
0.153316
0.153303
0.154685
0.154693
0.153314
0.153307
0.154678
0.154688
0.154658
0.153309
0.153321
0.153312
0.153341
0.15464
0.15466
0.154672
0.153317
0.15336
0.15334
0.153328
0.154684
0.153316
0.154661
0.154684
0.154677
0.153311
0.153338
0.153315
0.153322
0.154669
0.154677
0.154627
0.15334
0.153331
0.153322
0.153372
0.154697
0.153316
0.153303
0.15466
0.15464
0.154672
0.153317
0.15334
0.15336
0.153328
0.154677
0.154669
0.154627
0.15334
0.153322
0.153331
0.153373
0.153316
0.151864
0.151872
0.150493
0.150486
0.151863
0.150495
0.151875
0.151875
0.15188
0.150482
0.150482
0.150478
0.151867
0.151857
0.151837
0.150488
0.150491
0.1505
0.15052
0.151863
0.15184
0.151856
0.15049
0.150494
0.150518
0.150501
0.151876
0.150495
0.150482
0.151864
0.151872
0.150493
0.150486
0.151857
0.151867
0.151837
0.150488
0.1505
0.150491
0.15052
0.151819
0.151839
0.151851
0.150496
0.150539
0.150519
0.150507
0.151863
0.150495
0.15184
0.151863
0.151856
0.15049
0.150518
0.150494
0.150501
0.151848
0.151856
0.151806
0.150519
0.15051
0.150501
0.150551
0.151876
0.150495
0.150482
0.151839
0.151819
0.151851
0.150496
0.150519
0.150539
0.150507
0.151856
0.151848
0.151806
0.150519
0.150501
0.15051
0.150552
0.150495
0.149043
0.149051
0.147672
0.147665
0.149042
0.147674
0.149054
0.149054
0.149059
0.147661
0.147661
0.147657
0.149046
0.149036
0.149017
0.147667
0.14767
0.147678
0.147699
0.149042
0.149019
0.149035
0.147669
0.147673
0.147697
0.147681
0.149055
0.147674
0.147661
0.149043
0.149051
0.147672
0.147665
0.149036
0.149046
0.149017
0.147667
0.147678
0.147669
0.147699
0.148998
0.149018
0.14903
0.147676
0.147718
0.147698
0.147687
0.149042
0.147674
0.149019
0.149042
0.149035
0.147669
0.147697
0.147673
0.147681
0.149027
0.149035
0.148986
0.147698
0.147689
0.14768
0.14773
0.149055
0.147674
0.147661
0.149018
0.148998
0.14903
0.147676
0.147698
0.147718
0.147687
0.149035
0.149027
0.148985
0.147698
0.14768
0.147689
0.147731
0.147674
0.146222
0.146231
0.144851
0.144844
0.146221
0.144853
0.146228
0.146226
0.146221
0.146228
0.145537
0.145537
0.146219
0.146226
0.145537
0.145537
0.146197
0.146221
0.146219
0.146196
0.14622
0.143407
0.143405
0.143399
0.143407
0.142716
0.142716
0.143398
0.143405
0.142716
0.142716
0.143376
0.143399
0.143398
0.143376
0.143399
0.140586
0.140584
0.140579
0.140586
0.139895
0.139895
0.140577
0.140584
0.139895
0.139895
0.140555
0.140579
0.140577
0.140555
0.140578
0.137766
0.137764
0.137758
0.137766
0.137074
0.137074
0.137756
0.137764
0.137074
0.137074
0.137734
0.137758
0.137757
0.137734
0.137757
0.134253
0.134935
0.134253
0.134253
0.134913
0.134935
0.134913
0.134936
0.146234
0.146234
0.146238
0.14484
0.14484
0.144836
0.146227
0.146216
0.146196
0.144846
0.144849
0.144858
0.144878
0.146222
0.146198
0.146214
0.144847
0.144853
0.144875
0.144859
0.146234
0.144854
0.14484
0.146223
0.146231
0.144851
0.144844
0.146216
0.146226
0.146196
0.144846
0.144858
0.14485
0.144878
0.146177
0.146197
0.146209
0.144854
0.144897
0.144877
0.144866
0.146221
0.144853
0.146198
0.146222
0.146214
0.144848
0.144876
0.144853
0.144859
0.146206
0.146214
0.146165
0.144877
0.144868
0.144859
0.14491
0.146234
0.144853
0.14484
0.146197
0.146177
0.146209
0.144854
0.144877
0.144897
0.144866
0.146214
0.146206
0.146164
0.144877
0.14486
0.144868
0.14491
0.144853
0.143401
0.143409
0.142031
0.142023
0.1434
0.142032
0.143413
0.143413
0.143417
0.142019
0.142019
0.142015
0.143404
0.143395
0.143374
0.142025
0.142028
0.142037
0.142057
0.143401
0.143377
0.143393
0.142027
0.142032
0.142055
0.142038
0.143413
0.142032
0.142019
0.143401
0.14341
0.142031
0.142023
0.143395
0.143405
0.143375
0.142025
0.142037
0.142028
0.142057
0.143356
0.143376
0.143388
0.142033
0.142076
0.142056
0.142045
0.1434
0.142032
0.143377
0.143401
0.143393
0.142027
0.142055
0.142032
0.142039
0.143385
0.143393
0.143344
0.142056
0.142047
0.142038
0.142089
0.143413
0.142032
0.142019
0.143376
0.143356
0.143388
0.142033
0.142056
0.142076
0.142045
0.143393
0.143385
0.143343
0.142057
0.142039
0.142047
0.142089
0.142032
0.140581
0.140588
0.13921
0.139202
0.140579
0.139211
0.140592
0.140592
0.140596
0.139199
0.139199
0.139194
0.140583
0.140574
0.140554
0.139204
0.139207
0.139216
0.139237
0.14058
0.140556
0.140572
0.139206
0.139211
0.139234
0.139218
0.140592
0.139212
0.139198
0.140581
0.140588
0.13921
0.139202
0.140574
0.140583
0.140554
0.139204
0.139216
0.139207
0.139237
0.140535
0.140555
0.140567
0.139212
0.139255
0.139235
0.139224
0.140579
0.139211
0.140556
0.14058
0.140572
0.139206
0.139234
0.139211
0.139218
0.140564
0.140573
0.140523
0.139235
0.139226
0.139217
0.139268
0.140592
0.139212
0.139198
0.140555
0.140535
0.140567
0.139212
0.139235
0.139255
0.139224
0.140572
0.140564
0.140522
0.139236
0.139218
0.139226
0.139268
0.139212
0.13776
0.137767
0.136389
0.136381
0.137759
0.13639
0.137771
0.137771
0.137775
0.136378