/*--------------------------------*- C++ -*----------------------------------*\
  =========                 |
  \\      /  F ield         | OpenFOAM: The Open Source CFD Toolbox
   \\    /   O peration     | Website:  https://openfoam.org
    \\  /    A nd           | Version:  9
     \\/     M anipulation  |
\*---------------------------------------------------------------------------*/
FoamFile
{
    format      ascii;
    class       volScalarField;
    location    "3.000025/FluidRegion";
    object      T;
}
// * * * * * * * * * * * * * * * * * * * * * * * * * * * * * * * * * * * * * //

dimensions      [0 0 0 1 0 0 0];

internalField   nonuniform List<scalar> 
132485
(
299.956091589
299.946333145
299.987713729
299.956071432
300.001120315
300.000983991
299.973345698
299.946327923
300.000977681
300.000918213
299.947889177
299.987712596
299.973358887
299.947693546
299.980962528
299.95599533
299.946223895
299.987653318
299.955984134
300.000855468
300.000744708
299.973235341
299.946226724
300.000740192
300.000694837
299.947730916
299.987654191
299.973249863
299.94755015
299.980889818
299.955908276
299.946137513
299.987580983
299.95590887
300.000623014
300.000540553
299.9731333
299.946134609
300.000536347
300.000506671
299.947619993
299.98758199
299.973144752
299.947428956
299.980801907
299.955824013
299.946037463
299.987489009
299.955811493
300.000413746
300.000364866
299.973007687
299.946042474
300.000365359
300.000350143
299.94749765
299.987490487
299.973030678
299.947310934
299.980688009
299.955782774
299.945990901
299.98747275
299.955762206
300.000211853
300.000200869
299.972950819
299.945977338
300.000219523
300.000230581
299.947400098
299.987474143
299.97296237
299.947220604
299.980668766
299.95571772
299.945923838
299.987423856
299.955707226
299.999976783
299.999831352
299.972815801
299.945958323
300.000032107
300.000037208
299.947295216
299.987431502
299.972877049
299.947118246
299.980607304
299.955700309
299.945917176
299.987428613
299.95568187
299.999959475
300.000167938
299.97209225
299.945992813
300.000471334
300.00001997
299.947143152
299.987433922
299.972173055
299.946974968
299.980507952
300.013310888
300.020597045
300.015966238
300.015950533
299.987648722
299.980510044
300.013231107
300.020506743
299.985128852
300.015874333
299.988951862
299.988944777
299.990949521
300.011985091
300.011981924
300.010463744
299.945275339
299.982855232
299.96432446
300.045219178
300.056522542
300.018768191
300.037659417
299.949229167
299.967312073
299.980143215
300.055371033
300.05200558
300.034691334
300.021191196
299.984702195
300.013288165
300.016526058
299.987622828
299.980512176
300.01322331
300.020491886
299.982850738
299.945279191
299.964357597
300.045221184
300.018776206
300.056499814
300.037607479
299.967519552
299.94823814
299.935008036
300.028011586
300.033565765
300.053657772
300.066521274
299.985121115
300.01586588
299.967369283
299.949217457
299.980162972
300.055364471
300.034605407
300.052015071
300.021155209
299.934922024
299.968448629
299.967324497
300.053575467
300.066524985
300.032820887
300.03379776
299.98471153
300.013284841
300.016509262
299.948313749
299.967525873
299.935021133
300.027990623
300.05356898
300.033556377
300.066501973
299.968106286
299.934970841
299.967203284
300.053748374
300.03314765
300.066456283
300.033914066
300.020358136
299.987595925
299.980455816
300.01318588
300.020455432
299.985072675
300.015845496
299.988887631
299.98888882
299.990845836
300.011928415
300.011936842
300.010368281
299.945155069
299.982692356
299.964135846
300.045133334
300.0564176
300.018617475
300.037485751
299.949146913
299.967132629
299.980000453
300.055308142
300.051956536
300.034532402
300.021068026
299.984625126
300.013240177
300.016461042
299.987587747
299.980453457
300.013180638
300.020441019
299.982694357
299.945163402
299.964173443
300.045140358
300.018616804
300.056394583
300.037435061
299.967485919
299.948088173
299.934932566
300.027917431
300.033540406
300.053527908
300.066467654
299.98506756
300.015833604
299.967195219
299.949139542
299.980024167
300.055277595
300.034446118
300.051952011
300.021032539
299.934853383
299.968339369
299.967297558
300.053445214
300.066469806
300.032716849
300.033759616
299.984636041
300.013250977
300.016448963
299.94816832
299.967493862
299.934958289
300.027897312
300.053442435
300.033532018
300.066458485
299.968002158
299.934918086
299.967178855
300.053636509
300.033059964
300.066406621
300.033879627
300.020310933
299.987536244
299.980387769
300.013117844
300.020379483
299.985006424
300.015754069
299.988821165
299.988819054
299.990749518
300.011860639
300.011858989
300.010273647
299.94505117
299.982549949
299.963973513
300.045044938
300.056312968
300.018482401
300.037330827
299.949071562
299.966983657
299.979880762
300.055197142
300.051862099
300.034386351
300.020944628
299.984541136
300.01315771
300.016361551
299.987528528
299.980386583
300.013113938
300.020367501
299.982550063
299.945060476
299.964011898
300.045051665
300.018478976
300.056292272
300.037280631
299.967408332
299.947966568
299.934857036
300.027799794
300.033422212
300.053400872
300.06635854
299.985001304
300.015746116
299.967045669
299.949061429
299.97990459
300.0551792
300.034302184
300.051861571
300.020911239
299.934769671
299.968234886
299.967212524
300.053324121
300.066359431
300.032610413
300.033643487
299.984552299
300.013153482
300.016343051
299.948030649
299.967413943
299.934862317
300.027766561
300.053309013
300.033410363
300.066336797
299.967900209
299.934822592
299.967093227
300.053509452
300.032940906
300.066293496
300.033761756
300.020193259
299.987458425
299.980315234
300.013069028
300.020324359
299.984921109
300.015698385
299.98875049
299.988746614
299.990672041
300.011809828
300.011812052
300.010212139
299.944962265
299.982435718
299.963830661
300.044986226
300.056231727
300.018385357
300.037213828
299.948981237
299.966845231
299.979752403
300.05511743
300.051794531
300.034263878
300.020841884
299.984443772
300.013097127
300.016286432
299.987462864
299.980325416
300.013063149
300.020312884
299.982419414
299.944973435
299.963865503
300.044976279
300.018369462
300.056212348
300.037139811
299.967305625
299.947841999
299.934749411
300.027692326
300.033353107
300.053288284
300.066282734
299.984929867
300.015690899
299.966910085
299.948974449
299.979790007
300.055097713
300.034174996
300.051786723
300.02081167
299.934657682
299.968119118
299.967082923
300.053203556
300.066280749
300.032519492
300.033571833
299.984452977
300.013093053
300.016273545
299.947921224
299.967301662
299.934763865
300.027689104
300.053210407
300.033346876
300.066265835
299.967784019
299.934722992
299.966978959
300.053406976
300.032850676
300.066220494
300.033691022
300.02011874
299.987445651
299.980294501
300.013046669
300.0202984
299.984908813
300.015678049
299.988724238
299.988719349
299.990610123
300.011781161
300.011774553
300.010143464
299.94490102
299.982342819
299.963822153
300.044930367
300.056170248
300.018275022
300.037102087
299.948930728
299.966747108
299.9796805
300.055064234
300.051738235
300.034145981
300.020752371
299.984404721
300.013072231
300.016243218
299.987437082
299.980281921
300.013043298
300.020280153
299.982318626
299.944879907
299.963723579
300.044938653
300.018259421
300.056118405
300.036990025
299.967288079
299.947743606
299.93471946
300.02763048
300.03334033
300.053194504
300.06626662
299.984902332
300.015671008
299.966789732
299.94893136
299.979707793
300.055048469
300.034057601
300.051759497
300.020730482
299.934629294
299.968068888
299.967087994
300.05312805
300.066261523
300.032479224
300.033578797
299.984408008
300.013082924
300.016237393
299.947839919
299.967296381
299.934737623
300.027624231
300.053111867
300.033344326
300.066237189
299.967728522
299.934694162
299.96696861
300.05331846
300.032792356
300.066191156
300.033685283
300.020103783
299.987400036
299.980229635
300.012994455
300.020223813
299.984862038
300.015619248
299.988680214
299.988676749
299.990536998
300.01172893
300.011732483
300.010094065
299.944792126
299.982214608
299.963540281
300.044880558
300.056023268
300.018173736
300.036862248
299.94886304
299.966564809
299.979555621
300.055018354
300.051660442
300.033931331
300.020605773
299.984333688
300.013000317
300.016126728
299.987398687
299.980237403
300.012991085
300.020219307
299.982217421
299.944797867
299.963564904
300.044875865
300.018176062
300.056020481
300.036849139
299.967222799
299.947599677
299.934648756
300.027375028
300.03321576
300.052975109
300.066143109
299.984867107
300.015629972
299.966676672
299.948872403
299.979610986
300.055070022
300.03406669
300.051688708
300.020652048
299.934561399
299.967986291
299.967029399
300.052980188
300.066154332
300.032353174
300.033465064
299.984361949
300.013006816
300.016138167
299.947714869
299.967241495
299.934681099
300.027409087
300.052954227
300.033219986
300.066139503
299.967642576
299.934637163
299.966910571
300.053187085
300.032682112
300.066098485
300.033580446
300.019998482
299.987349132
299.980161908
300.012983048
300.020235958
299.984802522
300.01569766
299.988640287
299.988636328
299.990539743
300.011724568
300.011720653
300.010184542
299.944638806
299.982184055
299.963395642
300.044940007
300.056031722
300.018266159
300.036900676
299.948679925
299.966236569
299.979597871
300.055570224
300.051535506
300.034244984
300.020933369
299.984299399
300.012871472
300.015862337
299.987345168
299.980172771
300.012987905
300.020234355
299.982188675
299.944679899
299.963500885
300.044961589
300.01826401
300.0560439
300.036909482
299.96701818
299.947268143
299.934514879
300.027222003
300.03316777
300.052822209
300.066075785
299.984816571
300.015700658
299.966585024
299.948695911
299.979744873
300.055608514
300.034325688
300.051554527
300.021006787
299.934463891
299.967878339
299.966928133
300.052926106
300.066120658
300.032300832
300.033422329
299.98434558
300.012878576
300.015882837
299.947407123
299.967047889
299.93453481
300.027270756
300.052809694
300.033175749
300.066081592
299.967539319
299.934531738
299.96680041
300.053126385
300.032632709
300.066063602
300.033541187
300.019958341
299.95593178
299.945746035
299.987558273
299.955942476
299.999566023
299.999915531
299.97217504
299.945768639
300.000092775
300.000000523
299.947104196
299.987569807
299.972242888
299.946933985
299.980518001
299.987382197
299.980118933
300.012894372
300.020009268
299.984787117
300.015645964
299.988675144
299.988675557
299.990750344
300.011611311
300.011619686
300.010005598
299.944242159
299.982496464
299.963215092
300.044620379
300.054959687
300.017961186
300.036206256
299.949002724
299.965959587
299.979501506
300.055328708
300.051626588
300.033978427
300.020532212
299.984501743
300.012781917
300.015747996
299.987379616
299.980119577
300.012893148
300.020001406
299.982502859
299.944264304
299.963282258
300.044641496
300.017981679
300.054956375
300.036178643
299.967041468
299.947276325
299.934515971
300.027823553
300.033292818
300.053061345
300.066142942
299.984790247
300.015639263
299.966010962
299.949021287
299.9795957
300.055313851
300.033920576
300.05163682
300.020551135
299.934457661
299.967852977
299.966939991
300.052981053
300.066145114
300.032320566
300.033448261
299.984539616
300.012785125
300.015751361
299.947428821
299.967061904
299.934548912
300.027847444
300.053029087
300.033294143
300.066129272
299.967518074
299.934520083
299.966822128
300.053186252
300.032666867
300.06608625
300.033569829
300.019976059
379.597828942
362.636481156
478.686701847
464.410432752
413.143618611
354.099949754
338.969232116
410.536379802
468.171607791
449.566168952
385.380734387
375.446762334
447.001247137
446.137065647
364.518830768
360.274388032
434.642059556
434.409549407
424.137565411
397.202885619
347.255757156
409.888171584
381.530943743
391.806666834
372.209600028
430.922393334
395.811396532
414.91538139
460.92071953
463.58459388
450.183160328
452.750161211
459.986082297
451.954575383
448.230053663
438.3225193
438.338589729
421.266831147
351.859227327
387.435237181
403.024196436
344.842819321
378.72994431
392.733980752
349.87315758
422.967971916
422.276680247
346.446835035
342.600192669
412.41480961
412.351715112
396.722920205
370.206061025
333.167701244
386.618693218
361.325344668
362.620575443
355.132746321
440.17713299
424.510993541
444.729658272
401.556606997
430.250422782
416.446173007
436.256484057
404.76671267
376.96799349
396.105552598
434.669861157
426.769064333
441.050435836
442.525880932
432.681463064
434.277357066
437.571635699
428.231084337
429.060576482
419.711859731
411.927789578
403.833674322
432.374363555
372.227366689
409.171143742
428.509227931
360.515208898
397.186839955
414.812327537
461.989978095
442.231657232
463.041205407
420.540940267
450.553599121
433.019976887
453.200439158
451.523887765
442.690272838
302.298617595
301.818754676
313.632771731
319.623683311
310.352911287
302.003232953
301.563807926
311.917358925
317.21450736
309.031814458
301.74617512
301.368218274
310.415418297
315.090991506
307.878831818
301.518748187
301.179456871
309.099993176
313.219467232
306.866131703
301.320501529
301.016534162
307.945016821
311.571724485
305.979198683
301.146614351
300.888671852
306.935365576
310.122273759
305.208233745
300.993795452
300.765557037
308.848718494
304.532816861
302.129272167
302.057226057
301.466183764
303.156276489
305.435108496
301.481602666
303.063955006
305.373573307
302.381403245
308.528165989
308.353092771
302.265965949
302.296985638
308.32618633
307.917094736
305.410121342
303.417049381
301.715847445
305.0778448
303.209748806
304.032193869
305.110048307
303.936690647
304.955993688
305.487548829
310.252114311
306.449418381
309.722633842
305.207448731
309.631184426
306.132052245
304.933675563
304.711864973
306.774528909
307.912631609
306.499414036
307.710083857
308.784098138
308.69189165
308.577299442
308.285247385
307.502136271
307.096216687
301.819256107
301.763071614
301.279033508
302.739505472
304.740393261
301.29467771
302.66844834
304.711645353
302.071799881
307.463509263
307.309630021
301.986260971
302.006005895
307.310414442
306.933318988
304.697614327
302.914237691
301.480353672
304.413923602
302.745137376
303.475938891
304.392386133
303.406553244
304.27102302
304.736334231
308.932792681
305.676297282
308.481348133
304.484978436
308.367253716
305.244003811
304.180398085
304.002258118
305.780210695
306.830422421
305.576609962
306.655430654
307.563737599
307.481381777
307.414895136
307.138075918
306.41351726
306.055137293
301.5958597
301.513296635
301.1051335
302.386566068
304.130262343
301.13154303
302.326182569
304.131069559
301.808537916
306.52578861
306.393374238
301.744166576
301.75746454
306.416602966
306.070340531
304.092904458
302.554685418
301.278697609
303.841723314
302.351381776
303.028138615
303.831687315
302.951703133
303.685893549
304.11562461
307.763424157
304.84405483
307.399371208
303.877985023
307.298912295
304.607171817
303.679871127
303.403601729
305.025909617
305.858890118
304.791403421
305.737022816
306.545545745
306.517557668
306.429050724
306.250131491
305.633471096
305.336184341
301.362127782
301.33436853
300.953748781
302.068238208
303.594683323
300.996094619
302.038679399
303.624224595
301.572378123
305.70076729
305.588139693
301.529920636
301.536836814
305.630622691
305.312920447
303.557678351
302.184531269
301.120330478
303.350752845
302.062968917
302.603542539
303.283075073
302.586911536
303.230455244
303.534778827
306.738026753
304.132154968
306.452489943
303.374988997
306.319605408
303.928597858
303.118093654
303.003920995
304.293794068
305.016014815
304.190942156
305.013209095
305.624118466
305.616563796
305.612487969
305.39076246
304.809543618
304.548549292
301.195822743
301.146608775
300.823199837
301.804691659
303.127801664
300.871939972
301.779505791
303.179614614
301.365042269
304.975739426
304.881518543
301.341710163
301.342141274
304.939962751
304.647475188
303.093409707
301.868769308
300.967608529
302.914641801
301.766219686
302.247117355
302.818797037
302.242247023
302.787645168
303.036706744
305.821142351
303.511885255
305.619929079
302.905553996
305.465970043
303.352532088
302.645426924
302.556168722
303.67981519
304.351060361
303.607216395
304.346191836
304.88493512
304.859067582
304.870948381
304.64803031
304.092797675
303.878008166
301.021320681
301.009381336
300.714294212
301.561986027
302.717975246
300.769418767
301.558912422
302.790964885
301.188230628
304.339098923
304.262126907
301.178900058
301.17324735
304.333728008
304.064227521
302.693999664
301.638254037
300.836024776
302.536164506
301.514043553
301.950062071
302.454996798
301.948996406
302.40959011
302.643376476
305.058656128
303.083005433
304.897335982
302.516119288
304.757293788
302.954893905
302.327929762
302.176810402
303.197199571
303.724257336
303.103377848
303.749163664
304.182496539
304.176362374
304.205659263
303.997796312
303.579391668
303.318678578
301.030119973
303.780129751
303.718429857
301.034787854
301.028303366
303.801430031
303.553318256
302.339723038
301.400956123
300.732440026
302.210748306
301.328326084
302.269139875
304.384791628
302.629455889
304.266818711
302.191027043
304.128384266
302.523414532
303.573677429
303.575063665
303.675583823
303.488172482
303.048048463
302.916580179
315.644742407
315.025760456
383.380089719
406.803838418
367.389401668
313.370525187
312.485180759
373.68747982
396.001672696
358.890010828
311.532725828
310.515869071
364.995919836
385.984976032
351.488179358
310.0367923
309.090225989
357.272430124
376.793819455
345.092641555
308.754534952
307.738427904
350.460894515
368.402787368
339.509218251
307.649065622
306.625727896
344.396060879
360.78306623
334.576593775
306.702671229
305.795067128
339.046333381
353.90832154
330.292439919
305.871711698
304.975803995
334.320864303
347.725554455
326.536070366
305.1416786
304.284240273
330.130210677
342.187708172
323.220558328
304.51137775
303.756138093
326.443383409
337.242180503
320.35393153
303.94590933
303.233626115
323.179416836
332.834266109
317.802849222
303.450052984
302.788584943
320.313072314
328.913359915
315.551000699
303.019498942
302.445125155
317.799800319
325.43411708
313.586947281
302.635777408
302.107596466
315.582209223
322.351111694
311.866821774
318.598518469
317.333291294
311.090122147
323.170456573
336.395379063
310.276392023
321.661836567
334.396246187
316.771289846
352.805276281
352.650596825
314.605288034
315.536800409
350.014421043
349.187013742
338.961139788
330.40185068
313.537715496
335.952193555
327.24539224
332.413397901
342.845785489
329.958739278
339.249058458
344.507929182
373.318033616
355.775536086
363.054584477
341.194726091
368.288794828
350.547446167
346.137284916
341.337500597
357.879510229
364.914409896
353.132048841
360.393474865
369.706806682
369.355903528
365.174490408
364.255538242
364.207550651
358.436021506
316.00593409
315.01571956
309.352689174
319.913855508
331.354469334
308.848962401
318.74741405
329.814553235
314.305816111
345.888528481
345.650274816
312.575829117
313.331916336
343.673308703
342.815292325
333.243503674
325.23209049
311.607386079
330.924993088
323.474770237
327.529871177
336.163963407
325.962354183
334.026058357
338.172721144
363.652107449
347.000419236
355.144962168
335.074346178
359.334881044
342.640212007
338.415709268
336.08222632
349.091847541
355.60805722
346.125217962
352.402872159
360.065344581
359.647491536
356.739177873
356.011456204
354.557015364
351.127175267
313.365535296
312.534502852
307.972957919
317.095102139
327.194707124
307.577668889
316.090910937
325.941535869
312.278462801
340.111404696
339.805033048
310.928233375
311.530047558
338.308594876
337.424510285
328.572161716
321.134477998
309.78792256
326.584785834
319.645730553
323.475253078
330.73283068
322.084753322
328.865953593
332.430933756
355.203623924
339.708875439
348.296579242
330.343969565
351.726376795
337.3667657
332.140670434
330.145050516
341.805589761
347.72750177
339.154809076
344.893233369
351.783049698
351.328442175
348.855447235
348.121616482
346.342290752
343.469549551
311.188774144
310.545663478
306.836861839
314.675599662
323.661082569
306.527591951
313.873547128
322.642742323
310.637259342
335.19106384
334.830135954
309.525830105
309.995312952
333.69558422
332.80636578
324.615913115
317.736162539
308.325405008
322.953832489
316.558155622
319.991604753
326.425872674
318.892991004
324.610838983
327.80345891
348.309720776
334.871465875
342.298599198
325.916891657
345.013386653
331.729578384
326.934209534
325.306529881
335.926837545
341.300809497
333.374191216
338.558688801
344.960032547
344.660389284
342.130170208
341.391699805
340.571400948
336.956683942
309.773513606
309.244058305
305.954768207
312.776809758
320.66785981
305.659265475
312.130609583
319.837136328
309.251687987
330.944249627
330.555655587
308.343729808
308.71655297
329.691146448
328.822012205
321.358889933
315.437828163
307.248641416
319.926881306
314.027211148
317.407885242
322.71506787
316.546612641
321.511350932
324.066355862
341.872424297
329.511569575
337.040143175
322.192114021
338.955281261
326.858501354
323.590050415
322.245809729
330.848111891
335.37874114
329.098311399
333.472005584
338.633815564
338.278147156
336.600162696
335.817579963
334.387157458
331.350186418
308.277474524
307.820994619
305.147529799
311.080125773
318.083649246
304.957211475
310.508125676
317.391760064
308.049546848
327.244538943
326.847576825
307.31428837
307.61813924
326.182511652
325.35554642
318.545334677
313.085495532
306.212331125
317.384891977
312.28661234
314.979145504
319.451114003
314.220414318
318.403572296
320.575988363
336.233935783
325.008985995
332.463312481
319.322524701
333.932349613
323.525549433
319.873496278
318.736086126
326.366467388
330.391831884
324.825964362
328.734816219
333.271928287
332.869124796
331.534582702
330.897616192
329.172894651
327.425527856
307.014707193
306.64333579
304.462813227
309.581441771
315.826758345
304.308078267
309.116437417
315.253250695
307.031990246
323.997609024
323.622008899
306.41508572
306.654141521
323.092666913
322.31917252
316.223196345
311.478477634
305.345545676
315.161113382
310.467616517
313.020240935
316.960495211
312.250835462
315.78629693
317.706500964
331.464018619
321.290283536
328.429748997
316.575691862
329.44582813
319.996936494
317.446987399
315.8215487
322.933735225
326.345312548
321.243366053
324.726673947
328.873100986
328.494482639
327.203130395
326.578318021
324.877147631
323.322336194
306.136826772
305.667865152
303.904695607
308.366063028
313.865609876
303.75449093
307.930790768
313.388815943
306.152974966
321.135939762
320.779132749
305.640301304
305.846759266
320.364831947
319.639509086
314.112774697
309.747049464
304.6775188
313.193574018
308.892781799
311.21247528
314.503292809
310.685774285
313.79824193
315.39289908
327.453169009
318.663930952
324.893398786
314.253219522
325.668942379
317.062170989
314.709037725
313.912151913
319.548903099
322.565303194
318.504600896
321.448734316
324.786018903
324.544069575
323.421091435
322.931274421
321.821420426
320.496738492
305.22057671
304.970886074
303.387340351
307.262146684
312.142980242
303.300870106
306.942002542
311.758852223
305.374833752
318.607311149
318.27067157
304.953484986
305.111293118
317.952046795
317.277356406
312.281675094
308.303348475
304.028472963
311.529321949
307.814551413
309.659717644
312.4470365
309.235728167
311.843544272
313.208974974
323.855194474
315.879201006
321.813609519
312.463035558
322.35899278
314.973188719
312.43277352
311.760625968
316.726135736
319.377436394
315.823185003
318.449119761
321.287903454
321.075373844
320.336990581
319.914220225
318.588881847
317.489267186
304.455315809
304.243500132
302.969054445
306.313427364
310.638231575
302.879403782
306.044380504
310.324789996
304.710955835
316.373292585
316.066510462
304.34913597
304.471510967
315.818373522
315.195320762
310.753000296
307.308680431
303.478085681
310.065183425
306.684105305
308.413615311
310.866939017
307.975455453
310.181682178
311.546657756
320.761871622
313.55757819
319.1021201
310.742729762
319.419180656
312.760381588
310.934151403
309.959847996
314.560503382
316.799482618
313.559668138
315.892365622
318.390855982
318.392992412
317.554450293
317.166813311
316.293197395
314.909622045
303.909433297
303.732981991
302.577946722
305.525406444
309.316764021
302.532113331
305.308638218
309.070865626
304.108604425
314.396050855
314.114626763
303.822738509
303.914248697
313.929805119
313.351626336
309.364001853
306.221967493
303.046225195
308.764962763
305.693469349
307.244530877
309.285265795
306.887631714
308.720283058
309.931528018
318.073168065
311.909997366
316.700034445
309.247262903
316.923507328
311.234630344
309.222145445
308.41385963
312.388447883
314.373065964
311.554187181
313.622136233
315.899412824
315.76858669
315.12656454
314.713106208
313.851357986
312.682785756
303.336742286
303.196213437
302.237677583
304.809917016
308.154755123
302.210295133
304.622579938
307.962056034
303.583508441
312.646992538
312.389381715
303.354175976
303.428329713
312.259245362
311.726665508
308.150843004
305.311477846
302.628364639
307.65810618
305.003829332
306.232899412
307.950195
306.026327623
307.654015419
308.522706163
315.693349938
310.155758481
314.599485535
308.043388099
314.706058906
309.567781483
307.798762347
307.429500686
310.570269157
312.305562942
310.116704804
311.878030774
313.651802767
313.515202714
313.178103138
312.844627431
311.782700987
311.143587657
302.931520465
302.736929669
301.956014295
304.199511653
307.133176018
301.929704488
304.027953311
306.987112517
303.130801153
311.101412485
310.873215895
302.942796516
302.997636091
310.782754007
310.295125609
307.132657893
304.671780357
302.271925836
306.683672678
304.285343515
305.461047513
306.982283341
305.21746288
306.599542759
307.341116211
313.632984562
308.638970451
312.751639731
306.918493295
312.754075988
308.154521789
306.890327101
306.310847127
309.268237773
310.729510209
308.705050854
310.276441244
311.816074073
311.821774628
311.403235423
311.092482597
310.36947332
309.513887104
302.49658888
302.338362216
301.694148242
303.641100623
306.229891834
301.684031291
303.502094159
306.126322244
302.733994057
309.734995739
309.534125622
302.583416632
302.624844871
309.47801849
309.032806758
306.212320828
303.993763344
301.992302836
305.839403295
303.75941073
304.69143729
305.970772707
304.497642014
305.656117242
306.387705508
311.839877218
307.572423436
311.135680284
305.973029909
311.054105319
306.968264784
305.825091313
305.351615134
307.916793338
309.213287075
307.542145577
308.93800265
310.225267201
310.143270533
309.862392933
309.519527425
308.820410318
308.095006193
318.430067295
317.74090918
394.208327245
418.335104006
377.259901397
322.653612063
321.05405021
313.101342039
327.541857564
342.678492244
312.232470605
325.581195302
340.059842542
319.88696557
361.259128088
361.187589353
317.142381864
318.363063578
357.670115726
356.890121429
345.728437194
335.469594169
316.330342073
342.199971559
332.865701995
337.607011701
349.322350262
335.334265355
346.356505509
352.312839865
383.480150339
363.662600862
372.219909983
348.689457862
378.311668659
359.784829921
352.835769352
349.589802506
366.250428704
374.30494091
362.336996861
370.100194021
379.510441012
378.894413013
375.217291101
374.349935493
372.876549585
368.655744433
336.071895343
336.862775232
434.086105945
455.800880685
420.69591161
327.598034861
327.39025125
419.527352069
443.073094036
403.451221235
322.301723948
322.130103346
406.271038102
430.5112002
389.209162823
345.34371768
340.441136439
327.035211661
352.713705569
376.468514184
323.696266415
346.651994488
369.229060101
339.376455501
401.819494535
402.410145705
331.664376847
334.473989464
393.837287234
393.617513076
382.709753811
367.327616998
332.256981143
374.34645236
360.576054979
367.11887912
385.179774621
360.795532535
377.948004298
390.608105163
427.125533368
404.586620635
411.783110072
382.681036558
418.709975223
397.213312643
390.998612871
384.252728626
408.308027386
418.159410156
400.426942686
410.15465241
423.690921572
422.480725567
415.851592294
414.406040299
415.421582665
408.005880315
334.191446686
331.108274617
320.105969592
340.874648328
361.610398195
318.116178916
336.955579438
356.540141212
330.019905737
385.104584565
385.420150982
324.870819954
326.91564151
378.935611161
378.428435065
366.604641713
352.467116892
324.539647246
360.347588773
347.789240621
353.630731023
369.361086277
349.403991433
364.186744943
373.971939401
410.243610399
387.252019639
395.984228839
367.972496564
402.887026359
381.299452601
374.079444259
368.971446555
390.710852652
400.459254738
384.57542016
393.981869078
406.2098079
405.154244857
399.673395835
398.353013444
398.006404385
391.703703311
328.247157715
324.801195837
316.161813242
333.357517135
350.825387971
314.567144795
330.320900637
347.190462423
324.221273262
371.817098054
371.920081825
320.355673279
321.889783161
367.111059826
366.420865807
354.890773749
343.712119722
319.469152592
349.956640557
338.581923406
345.178380389
359.078467188
341.082827797
353.617056493
362.59383725
396.186196432
375.769377631
382.974508656
356.776473576
389.427362427
368.407687387
363.962075418
356.934010106
378.327768742
386.864021466
371.614181152
380.523246723
392.334943231
391.731565728
386.050569655
384.852273593
385.870482593
378.109544047
306.051785776
305.276631287
300.871363797
300.867084743
300.614264318
301.351753752
302.358772377
300.674728504
301.357582724
302.448934135
301.673887958
302.100703195
301.70559108
302.11370114
301.971841095
301.922282021
302.727120658
303.176585622
302.715734733
303.275027688
300.741634882
300.745582511
300.530499622
301.165864827
302.043467937
300.592204226
301.183430228
302.149332623
301.436827424
301.80010055
301.480786624
301.827614353
301.671656004
301.638048791
302.33105911
302.720032987
302.34042243
302.841166438
303.089973932
303.090987258
300.861114681
300.659371961
307.730691059
303.943314771
300.743970048
300.575674066
304.601429595
306.750623884
303.430170437
300.892629564
303.28957681
303.242226668
300.9086059
300.898773339
303.3344217
303.10517155
302.032304428
301.198282091
300.632873131
301.922125172